          11
Time step:                2000 Sim. Time [au]       40000.00
O     0.67604877E+00   -0.14289528E+00    0.12180812E+01
Sn    0.36365343E+00   -0.17628204E+00   -0.68594650E+00
O    -0.54960638E-01    0.16546481E+01   -0.11204060E+01
C     0.20334464E+01   -0.78273294E+00   -0.17377279E+01
O    -0.12806826E+01   -0.12603064E+01   -0.11097976E+01
H    -0.53791515E+00    0.23062510E+01   -0.66004123E+00
H     0.17302060E+01   -0.11289435E+01   -0.28014948E+01
H     0.23535340E+01   -0.17213517E+01   -0.12647933E+01
H     0.29737996E+01   -0.17520711E+00   -0.17028721E+01
H     0.25260055E+00   -0.55652034E+00    0.19214765E+01
H    -0.20667578E+01   -0.11230467E+01   -0.14325398E+01
