   15
Time step:                2100 Sim. Time [au]       21000.00 
Sn    -2.665194    -1.843742     2.984335
 C    -7.569141    -0.877109     3.519252
 C    -2.117608    -1.727153     5.116989
 C    -2.404341    -0.362493     1.445526
 O    -3.236482    -3.536749     2.503209
 H    -2.801118    -4.447565     2.176520
 H    -1.692150     0.501826     1.399157
 H    -3.376191     0.084391     1.364370
 H    -2.272129    -0.887414     0.476675
 H    -8.193696    -0.984230     4.265289
 H   -15.075084    -3.608281    -6.506410
 H    -8.421662    -0.951981     2.695933
 H    -2.531102    -2.597865     5.590626
 H    -1.128987    -1.907554     5.277078
 H    -2.350927    -0.776990     5.623077
 