          15
Time step:                2100 Sim. Time [au]       21000.00
Sn   -0.20557952E+01    0.52651539E+00   -0.12332345E+01
C     0.61674850E+01    0.11098658E+01    0.69217774E+01
C    -0.34367141E+00    0.11571062E-01   -0.23169387E+01
C    -0.23392492E+01   -0.60096246E+00    0.57196626E+00
O    -0.23273623E+01    0.22857225E+01   -0.11148057E+01
H    -0.31131873E+01    0.29072727E+01   -0.12159832E+01
H    -0.35959607E+00   -0.66208550E+00   -0.32375582E+01
H     0.21136962E+00   -0.54840217E+00   -0.15509468E+01
H     0.27261878E+00    0.78017842E+00   -0.26916712E+01
H     0.58299679E+01    0.20454474E+01    0.70309193E+01
H     0.56403059E+01    0.14516713E+00    0.72332010E+01
H     0.69352176E+01    0.98165603E+00    0.60875960E+01
H    -0.19682191E+01   -0.15580040E+01    0.41093299E+00
H    -0.16976224E+01    0.20641791E-01    0.11117145E+01
H    -0.33410830E+01   -0.64744617E+00    0.10585880E+01
          15
Time step:                 326 Sim. Time [au]        3260.00
Sn   -0.14879765E+01    0.70805709E+00   -0.22402138E+00
C     0.51735350E+00    0.11293749E+00   -0.72461901E+00
C    -0.21797498E+01    0.42883637E-01   -0.36448201E+01
C    -0.30723129E+01   -0.67311144E+00    0.23448866E+00
O    -0.18698447E+01    0.23149282E+01   -0.10521214E+01
H    -0.27074911E+01    0.29405080E+01   -0.11013614E+01
H    -0.19013555E+01    0.95542914E+00   -0.40227087E+01
H    -0.32540213E+01   -0.23813319E+00   -0.37866078E+01
H    -0.14595712E+01   -0.67345424E+00   -0.35075353E+01
H     0.10363754E+01   -0.18629244E-01    0.14998519E+00
H     0.43443510E+00   -0.76567810E+00   -0.12607065E+01
H     0.89297652E+00    0.92998250E+00   -0.12668601E+01
H    -0.27304098E+01   -0.15643910E+01   -0.18735686E+00
H    -0.32643507E+01   -0.73739687E+00    0.12562548E+01
H    -0.39157232E+01   -0.23645608E+00   -0.28850028E+00
          15
Time step:                2100 Sim. Time [au]       21000.00
Sn   -0.64271081E+00    0.28530201E+00   -0.11792167E+01
C     0.55615673E+00   -0.12555262E+01   -0.36122992E+00
C    -0.26880237E+01   -0.27763514E+00   -0.10614238E+01
C    -0.54287981E+01   -0.44047640E+01    0.60230385E+01
O    -0.14893249E+00    0.20327847E+01   -0.93928302E+00
H     0.58243558E+00    0.25283099E+01   -0.74421252E+00
H    -0.30833994E+01   -0.78832489E+00   -0.18948360E+01
H    -0.33256711E+01    0.65021594E+00   -0.78873280E+00
H    -0.25594261E+01   -0.10814828E+01   -0.27127091E+00
H    -0.28113175E+00   -0.18158885E+01    0.59911389E-01
H     0.91690210E+00   -0.18963811E+01   -0.11598650E+01
H     0.12716074E+01   -0.96821674E+00    0.43317011E+00
H    -0.60019177E+01   -0.42093054E+01    0.51060412E+01
H    -0.51636113E+01   -0.54345792E+01    0.62605756E+01
H    -0.54663233E+01   -0.38296471E+01    0.69133788E+01
          15
Time step:                2100 Sim. Time [au]       21000.00
Sn   -0.28699500E+00   -0.30854979E+00   -0.16362872E+01
C     0.12786381E+01   -0.16044373E+01   -0.14190839E+01
C    -0.14930252E+01   -0.56550746E+00    0.92295270E-01
C    -0.26300633E+01   -0.55385681E+01    0.11094506E+02
O    -0.26671001E+00    0.11899469E+01   -0.26102959E+01
H     0.10227352E+00    0.15255275E+01   -0.34344686E+01
H    -0.26713386E+01   -0.42765989E+00   -0.82337246E-01
H    -0.10309982E+01   -0.37920153E+00    0.10337074E+01
H    -0.15534062E+01   -0.16172952E+01    0.14259132E+00
H     0.10605765E+01   -0.27403918E+01   -0.11410470E+01
H     0.20265046E+01   -0.16216865E+01   -0.21935388E+01
H     0.16795287E+01   -0.11141156E+01   -0.52764914E+00
H    -0.36628222E+01   -0.53458447E+01    0.11453682E+02
H    -0.23633505E+01   -0.65785873E+01    0.10787374E+02
H    -0.17677642E+01   -0.48561630E+01    0.11388480E+02
          15
Time step:                2100 Sim. Time [au]       21000.00
Sn    0.78189670E-01   -0.10432838E+01   -0.16493103E+01
C     0.18840098E+01   -0.19185109E+01   -0.17402735E+01
C    -0.18228944E+01   -0.19640953E+01   -0.13650868E+01
C    -0.37658616E+00   -0.17545467E+01    0.65965334E+01
O     0.14599158E+00    0.69446838E+00   -0.10481760E+01
H     0.53908396E+00    0.11952976E+01   -0.33450712E+00
H    -0.25463640E+01   -0.12813778E+01   -0.17031664E+01
H    -0.19793558E+01   -0.22680996E+01   -0.28359830E+00
H    -0.19347076E+01   -0.27969205E+01   -0.19637007E+01
H     0.15804113E+01   -0.28349453E+01   -0.11768920E+01
H     0.23170879E+01   -0.23682803E+01   -0.27177814E+01
H     0.28270034E+01   -0.15708607E+01   -0.13381804E+01
H     0.64139485E-01   -0.95734370E+00    0.71036040E+01
H    -0.12470566E+01   -0.15043230E+01    0.58859778E+01
H    -0.14267930E+00   -0.27139096E+01    0.68022472E+01
          15
Time step:                  98 Sim. Time [au]         980.00
Sn    0.19594416E+00   -0.15712618E+01   -0.98869314E+00
C     0.17333617E+01   -0.13288063E+01   -0.24741594E+01
C    -0.81305140E+00   -0.33402602E+01   -0.67302407E+00
C     0.13311841E+01   -0.95038932E+00    0.11138317E+01
O    -0.97769095E+00   -0.33459601E+00   -0.10614678E+01
H    -0.68151672E+00    0.30810367E+00   -0.17454721E+01
H    -0.15335104E+01   -0.33426808E+01    0.11373658E+00
H    -0.23786846E+00   -0.42152308E+01   -0.57349673E+00
H    -0.13825379E+01   -0.33393318E+01   -0.16402821E+01
H     0.20315325E+01   -0.40210753E+00   -0.28856148E+01
H     0.27475316E+01   -0.17970241E+01   -0.23232379E+01
H     0.12254265E+01   -0.17653051E+01   -0.33106609E+01
H     0.13625756E+01   -0.19567069E+01    0.14794682E+01
H     0.22250402E+01   -0.49349262E+00    0.77843290E+00
H     0.65992505E+00   -0.13075350E+00    0.15160625E+01
          15
Time step:                 186 Sim. Time [au]        1860.00
Sn    0.35848707E+00   -0.15018738E+01   -0.12350561E+01
C    -0.19709565E+00   -0.24498899E+01   -0.30261710E+01
C     0.20765884E+00   -0.40258806E+01    0.75386637E+00
C     0.22343900E+01   -0.90274472E+00   -0.68669153E+00
O    -0.10027450E+01   -0.60649471E+00   -0.25662692E+00
H    -0.18484839E+01   -0.93185550E+00   -0.69711540E-01
H     0.81617726E+00   -0.33335407E+01    0.13180757E+01
H     0.59354415E+00   -0.44700763E+01   -0.44274128E-01
H    -0.77250270E+00   -0.36750426E+01    0.86506741E+00
H     0.45795152E+00   -0.31278104E+01   -0.35312146E+01
H    -0.13195488E+01   -0.28820865E+01   -0.30306297E+01
H    -0.25624376E+00   -0.16592181E+01   -0.37440479E+01
H     0.23094791E+01   -0.51049022E+00    0.22237441E+00
H     0.30438725E+01   -0.16477737E+01   -0.89830141E+00
H     0.26011051E+01   -0.88938818E-01   -0.12660623E+01
          15
Time step:                2100 Sim. Time [au]       21000.00
Sn   -0.42967225E+00   -0.14087653E+01   -0.17155173E+01
C    -0.83020674E+00   -0.34735660E+01   -0.14150972E+01
C     0.48585910E+01   -0.69158170E+01    0.44488104E+01
C     0.83525984E+00   -0.61368505E+00   -0.29803640E+01
O    -0.49614164E+00   -0.48570881E+00   -0.17899516E+00
H    -0.11033300E+01   -0.21859899E+00    0.57351592E+00
H     0.51706113E+01   -0.78141805E+01    0.39177946E+01
H     0.55708198E+01   -0.61949878E+01    0.45390357E+01
H     0.39758915E+01   -0.70790667E+01    0.49558338E+01
H    -0.19162712E+01   -0.36464963E+01   -0.12868710E+01
H    -0.35477121E+00   -0.41080480E+01   -0.22419905E+01
H    -0.29664030E+00   -0.37340710E+01   -0.47764374E+00
H     0.17288557E+01   -0.10926157E+01   -0.24439806E+01
H     0.76327972E+00   -0.10420599E+01   -0.40386709E+01
H     0.97151752E+00    0.47400528E+00   -0.31067855E+01
          15
Time step:                2100 Sim. Time [au]       21000.00
Sn   -0.24227095E+00   -0.19540455E+01   -0.64310024E+00
C    -0.20195873E+01   -0.29023317E+01   -0.28330763E+00
C     0.17346213E+01   -0.24172831E+01   -0.44277982E+00
C     0.46660427E+00   -0.44591779E+01   -0.74648824E+01
O    -0.26514168E+00   -0.10190468E+01   -0.22539656E+01
H    -0.11420481E+01   -0.73614251E+00   -0.25208769E+01
H     0.18630446E+01   -0.31854865E+01    0.21560040E+00
H     0.22608315E+01   -0.15453450E+01   -0.18397720E+00
H     0.19823865E+01   -0.28009353E+01   -0.13985750E+01
H    -0.26806666E+01   -0.24029998E+01   -0.91863407E+00
H    -0.19308556E+01   -0.40361260E+01   -0.64664979E+00
H    -0.21272386E+01   -0.27877062E+01    0.74785839E+00
H     0.63145984E+00   -0.54553141E+01   -0.72069388E+01
H    -0.36317228E+00   -0.42372627E+01   -0.82718035E+01
H     0.77691392E+00   -0.38030442E+01   -0.67204940E+01
          15
Time step:                2100 Sim. Time [au]       21000.00
Sn   -0.14144873E+01   -0.21527631E+01   -0.17344654E+01
C    -0.24020078E+01   -0.20661112E+01    0.58450050E-01
C     0.69105739E+01    0.51050150E+00    0.35535115E+00
C    -0.14362304E+01   -0.32894924E+01   -0.35187748E+01
O    -0.11283851E+00   -0.83528520E+00   -0.17952078E+01
H     0.41784141E+00   -0.85048668E+00   -0.26204154E+01
H     0.67987987E+01    0.45094324E+00   -0.65076051E+00
H     0.69638616E+01   -0.37616673E+00    0.96612093E+00
H     0.66869764E+01    0.13610222E+01    0.81315427E+00
H    -0.27328444E+01   -0.10594597E+01    0.39696957E+00
H    -0.34575401E+01   -0.25393323E+01   -0.61828733E-01
H    -0.21458444E+01   -0.27235252E+01    0.86119818E+00
H    -0.23773976E+01   -0.32525522E+01   -0.40341955E+01
H    -0.73264533E+00   -0.26447113E+01   -0.40481574E+01
H    -0.83239699E+00   -0.42314662E+01   -0.34401637E+01
          15
Time step:                2100 Sim. Time [au]       21000.00
Sn   -0.13680167E+01   -0.18698627E+01   -0.24642183E+01
C     0.17905485E+01   -0.90930008E+00    0.10674605E+02
C    -0.82765951E+00   -0.10996845E+01   -0.41031724E+00
C    -0.11654778E+01   -0.39947406E+01   -0.29357494E+01
O    -0.27802137E+01   -0.91724347E+00   -0.31165405E+01
H    -0.31502756E+01   -0.10021918E+01   -0.40071997E+01
H    -0.17275075E+01   -0.90905700E+00    0.14411818E+00
H    -0.56232262E-02   -0.53666119E+00   -0.62018369E+00
H    -0.58187470E+00   -0.20974553E+01    0.56450108E-01
H     0.25694504E+01   -0.27467009E+00    0.11184973E+02
H     0.16638040E+01   -0.50716574E+00    0.97925803E+01
H     0.98221226E+00   -0.11224245E+01    0.11296831E+02
H    -0.74510793E+00   -0.44793578E+01   -0.20152509E+01
H    -0.22878126E+01   -0.41346830E+01   -0.28874757E+01
H    -0.77672874E+00   -0.42419769E+01   -0.39006782E+01
          15
Time step:                2100 Sim. Time [au]       21000.00
Sn   -0.22311664E+01   -0.25889181E+01   -0.84958718E+00
C    -0.38988619E+00   -0.13627104E+01   -0.28104027E+00
C     0.25284413E+01    0.48610548E+01   -0.60844384E+01
C    -0.22184804E+01   -0.32776109E+01   -0.28764695E+01
O    -0.39299566E+01   -0.20032850E+01   -0.25472008E+00
H    -0.43627601E+01   -0.21424266E+01    0.62082438E+00
H     0.23953252E+01    0.59438235E+01   -0.60184163E+01
H     0.27105808E+01    0.44689929E+01   -0.70986759E+01
H     0.26645269E+01    0.42936931E+01   -0.52010609E+01
H     0.18855494E+00   -0.19459077E+01    0.30477288E+00
H    -0.46546149E-01   -0.11534304E+01   -0.13077602E+01
H    -0.70961458E+00   -0.45578029E+00    0.18447593E+00
H    -0.29193440E+01   -0.40922272E+01   -0.28432696E+01
H    -0.24544364E+01   -0.22287067E+01   -0.33296448E+01
H    -0.12391537E+01   -0.36092383E+01   -0.28802231E+01
          15
Time step:                2100 Sim. Time [au]       21000.00
Sn   -0.26819257E+01   -0.24666519E+01   -0.44294074E+00
C    -0.64476497E+00   -0.18761780E+01   -0.47256330E+00
C    -0.63226586E+00    0.23393977E+01   -0.66285313E+01
C    -0.35950661E+01   -0.40040688E+01   -0.15430711E+01
O    -0.37998982E+01   -0.12930034E+01    0.27498091E+00
H    -0.37266943E+01   -0.49923870E+00    0.78585374E+00
H    -0.67083105E+00    0.13831446E+01   -0.69881553E+01
H    -0.60244115E-01    0.24489515E+01   -0.55964357E+01
H    -0.11401244E+01    0.30774400E+01   -0.72004958E+01
H     0.13078715E+00   -0.26615153E+01   -0.48796503E+00
H    -0.24504525E+00   -0.16275180E+01   -0.15134268E+01
H    -0.40755515E+00   -0.11990313E+01    0.16195162E+00
H    -0.33084232E+01   -0.36326377E+01   -0.25555239E+01
H    -0.30702936E+01   -0.49266440E+01   -0.15851611E+01
H    -0.45604215E+01   -0.38151432E+01   -0.13991695E+01
          15
Time step:                2100 Sim. Time [au]       21000.00
Sn   -0.42857590E+01   -0.26666328E+01   -0.10086027E+01
C     0.56397850E+01   -0.17378672E+01    0.98355764E+00
C    -0.37290072E+01   -0.15356001E+01   -0.26673164E+01
C    -0.44198364E+01   -0.47372191E+01   -0.74836415E+00
O    -0.40173535E+01   -0.17397398E+01    0.58082721E+00
H    -0.32655778E+01   -0.10940049E+01    0.65953131E+00
H    -0.36161218E+01   -0.40151198E+00   -0.23919898E+01
H    -0.43458704E+01   -0.15583133E+01   -0.35465192E+01
H    -0.27618696E+01   -0.23009614E+01   -0.28263659E+01
H     0.61670370E+01   -0.10177851E+01    0.17122593E+01
H     0.49727534E+01   -0.26847099E+01    0.12000739E+01
H     0.56222836E+01   -0.13946120E+01   -0.12381226E+00
H    -0.51845659E+01   -0.50902185E+01   -0.13647774E+01
H    -0.34364282E+01   -0.51625759E+01   -0.10803341E+01
H    -0.47793753E+01   -0.51652376E+01    0.21101515E+00
          15
Time step:                2100 Sim. Time [au]       21000.00
Sn   -0.57851132E+01   -0.33876560E+01   -0.10074103E+01
C     0.46830971E+01    0.19099096E+01   -0.78390649E+01
C    -0.67307914E+01   -0.43321874E+01   -0.24941575E+01
C    -0.38983085E+01   -0.39447136E+01   -0.17111313E+00
O    -0.61065918E+01   -0.16099486E+01   -0.63086233E+00
H    -0.63538625E+01   -0.82031963E+00   -0.10981419E+01
H    -0.75234862E+01   -0.37225129E+01   -0.26120420E+01
H    -0.69524019E+01   -0.53320668E+01   -0.24486207E+01
H    -0.59081448E+01   -0.39301723E+01   -0.33642338E+01
H     0.44488910E+01    0.87556762E+00   -0.81197728E+01
H     0.37757010E+01    0.26096277E+01   -0.76960797E+01
H     0.52834502E+01    0.17586272E+01   -0.68871334E+01
H    -0.31085453E+01   -0.38462463E+01   -0.81055239E+00
H    -0.37183061E+01   -0.34253121E+01    0.78877958E+00
H    -0.40188578E+01   -0.49625744E+01    0.19060597E-01
          15
Time step:                1611 Sim. Time [au]       16110.00
Sn   -0.48347199E+01   -0.34622090E+01   -0.19498277E+01
C    -0.44349209E+01   -0.24296631E+01   -0.38664781E+01
C    -0.49536238E+01   -0.55473145E+01   -0.16459410E+01
C     0.58208222E+00   -0.40909385E+01    0.73134360E+01
O    -0.60692432E+01   -0.27103539E+01   -0.10302796E+01
H    -0.63891954E+01   -0.19500320E+01   -0.13989528E+01
H    -0.40703616E+01   -0.60680012E+01   -0.18228043E+01
H    -0.55245084E+01   -0.59414310E+01   -0.24831510E+01
H    -0.55676052E+01   -0.58772249E+01   -0.72328237E+00
H    -0.47592901E+01   -0.15290189E+01   -0.35350288E+01
H    -0.34733129E+01   -0.24232481E+01   -0.40912872E+01
H    -0.49856719E+01   -0.29325421E+01   -0.46271285E+01
H     0.13091563E+01   -0.40493361E+01    0.80858728E+01
H     0.96526516E+00   -0.36776478E+01    0.64313478E+01
H    -0.35685211E+00   -0.42382775E+01    0.77620272E+01
          15
Time step:                2100 Sim. Time [au]       21000.00
Sn   -0.40248603E+01   -0.29696667E+01   -0.49350175E+00
C    -0.40501755E+01   -0.21802325E+01   -0.24498996E+01
C    -0.51495565E+01   -0.12595955E+02   -0.33927960E+01
C    -0.24856046E+01   -0.35335388E+01    0.68465716E+00
O    -0.51188175E+01   -0.44181498E+01   -0.33945917E+00
H    -0.58248950E+01   -0.46669765E+01   -0.10359205E+01
H    -0.54122627E+01   -0.11843661E+02   -0.41322927E+01
H    -0.55496430E+01   -0.12553031E+02   -0.23852639E+01
H    -0.43422524E+01   -0.13235469E+02   -0.37283638E+01
H    -0.42960645E+01   -0.11430533E+01   -0.28099552E+01
H    -0.29474271E+01   -0.24638741E+01   -0.25140011E+01
H    -0.47030006E+01   -0.28536192E+01   -0.27881201E+01
H    -0.18159228E+01   -0.42173733E+01   -0.66403473E-01
H    -0.18718622E+01   -0.27615842E+01    0.10815596E+01
H    -0.27485325E+01   -0.42191140E+01    0.14846385E+01
          15
Time step:                 163 Sim. Time [au]        1630.00
Sn   -0.42373715E+01   -0.42943600E+01   -0.46661191E+00
C    -0.43219010E+01   -0.46423394E+01   -0.25212587E+01
C    -0.47064128E+01   -0.68380915E+01    0.68302764E+00
C    -0.24681069E+01   -0.37824322E+01    0.44499216E+00
O    -0.57393815E+01   -0.34044788E+01    0.38911343E+00
H    -0.63145768E+01   -0.27393077E+01    0.13572216E-01
H    -0.55451117E+01   -0.63644190E+01    0.11127605E+01
H    -0.37969043E+01   -0.66898357E+01    0.12569632E+01
H    -0.46602070E+01   -0.75994616E+01   -0.23783745E+00
H    -0.38953740E+01   -0.55991123E+01   -0.27836465E+01
H    -0.53958169E+01   -0.44812403E+01   -0.28452297E+01
H    -0.38190826E+01   -0.38662418E+01   -0.30512210E+01
H    -0.26036847E+01   -0.43136358E+01    0.14669087E+01
H    -0.16340566E+01   -0.40944452E+01   -0.35890824E-01
H    -0.24529952E+01   -0.27481880E+01    0.68391565E+00
          15
Time step:                 161 Sim. Time [au]        1610.00
Sn   -0.41286926E+01   -0.46465806E+01    0.71022931E-01
C    -0.28214301E+01   -0.57681505E+01   -0.10927025E+01
C    -0.53902439E+01   -0.54942962E+01    0.15127556E+01
C    -0.21277005E+01   -0.31520149E+01    0.16298082E+01
O    -0.48401152E+01   -0.30925816E+01   -0.84495012E+00
H    -0.51792433E+01   -0.21755068E+01   -0.82035893E+00
H    -0.61955881E+01   -0.47844640E+01    0.17065900E+01
H    -0.48348658E+01   -0.54098804E+01    0.24066238E+01
H    -0.56959624E+01   -0.65475911E+01    0.12409425E+01
H    -0.19651144E+01   -0.61042206E+01   -0.57734035E+00
H    -0.35332902E+01   -0.64968909E+01   -0.15085409E+01
H    -0.25567111E+01   -0.50311717E+01   -0.18723578E+01
H    -0.29536448E+01   -0.25429585E+01    0.19935352E+01
H    -0.17953478E+01   -0.41303770E+01    0.22227972E+01
H    -0.16983805E+01   -0.28787105E+01    0.79904742E+00
          15
Time step:                2100 Sim. Time [au]       21000.00
Sn   -0.45630769E+01   -0.47180253E+01    0.20109818E+00
C    -0.33328235E+01   -0.64107704E+01    0.86512740E+00
C    -0.61235959E+01   -0.37817732E+01    0.13123816E+01
C     0.13532047E+01   -0.31248237E+01    0.32377723E+01
O    -0.38323203E+01   -0.34201976E+01   -0.94886665E+00
H    -0.30547987E+01   -0.28335038E+01   -0.86223007E+00
H    -0.62745262E+01   -0.28549488E+01    0.82942971E+00
H    -0.55504459E+01   -0.35886700E+01    0.21938299E+01
H    -0.70109540E+01   -0.44227953E+01    0.13836202E+01
H    -0.40476884E+01   -0.71505327E+01    0.87832768E+00
H    -0.24092667E+01   -0.67238743E+01    0.39344897E+00
H    -0.30812112E+01   -0.61357043E+01    0.18721854E+01
H     0.16704943E+01   -0.22560716E+01    0.38043972E+01
H     0.11329702E+01   -0.39378841E+01    0.38947165E+01
H     0.13258725E+01   -0.32957392E+01    0.21780023E+01
          15
Time step:                 165 Sim. Time [au]        1650.00
Sn   -0.41907736E+01   -0.43792613E+01    0.39946383E+00
C    -0.53586318E+01   -0.61989307E+01    0.32163938E+00
C    -0.63726009E+01   -0.23769678E+01    0.27418453E+00
C    -0.31360496E+01   -0.37351120E+01    0.20841414E+01
O    -0.34353895E+01   -0.37655151E+01   -0.13027809E+01
H    -0.30982962E+01   -0.41694589E+01   -0.21522158E+01
H    -0.69001337E+01   -0.27316746E+01    0.11896524E+01
H    -0.67488710E+01   -0.27159179E+01   -0.78755758E+00
H    -0.56641248E+01   -0.15204531E+01    0.21065683E+00
H    -0.61180584E+01   -0.60352524E+01    0.11192515E+01
H    -0.57063233E+01   -0.60886699E+01   -0.58730249E+00
H    -0.45019924E+01   -0.68781486E+01    0.49252340E+00
H    -0.21341853E+01   -0.31948752E+01    0.17942937E+01
H    -0.37092802E+01   -0.29970180E+01    0.26667307E+01
H    -0.28485181E+01   -0.44126073E+01    0.27810414E+01
          15
Time step:                 667 Sim. Time [au]        6670.00
Sn   -0.41231562E+01   -0.42940969E+01    0.32527505E-01
C    -0.54525991E+01   -0.58906206E+01    0.23883717E+00
C    -0.82157962E+01   -0.18210069E+01   -0.41791915E-01
C    -0.29044038E+01   -0.31257245E+01    0.13844093E+01
O    -0.38880332E+01   -0.35278731E+01   -0.15163453E+01
H    -0.40037801E+01   -0.32927636E+01   -0.24475555E+01
H    -0.73285696E+01   -0.11518101E+01    0.55054750E-01
H    -0.86885309E+01   -0.19299593E+01    0.86775649E+00
H    -0.83984269E+01   -0.20623371E+01   -0.10535347E+01
H    -0.63089517E+01   -0.56411224E+01    0.10087751E+01
H    -0.61746305E+01   -0.59008644E+01   -0.77423498E+00
H    -0.48277683E+01   -0.68205518E+01    0.15521312E+00
H    -0.19253631E+01   -0.30997398E+01    0.89116098E+00
H    -0.33356334E+01   -0.20716843E+01    0.16197891E+01
H    -0.26835322E+01   -0.35038296E+01    0.23921033E+01
          15
Time step:                2100 Sim. Time [au]       21000.00
Sn   -0.41620988E+01   -0.43073569E+01   -0.92261988E+00
C    -0.44046449E+01   -0.60343326E+01    0.41399681E+00
C    -0.91908571E+01    0.39423552E+00   -0.18604649E+01
C    -0.35674501E+01   -0.21505976E+01   -0.40421526E+00
O    -0.49555707E+01   -0.45191231E+01   -0.24960340E+01
H    -0.50858337E+01   -0.41806442E+01   -0.33911276E+01
H    -0.82300472E+01    0.93994076E+00   -0.18596592E+01
H    -0.94979725E+01   -0.34441648E+00   -0.11089706E+01
H    -0.97606826E+01    0.60880833E+00   -0.27449867E+01
H    -0.37950720E+01   -0.57955407E+01    0.11786068E+01
H    -0.54807647E+01   -0.59732504E+01    0.53049789E+00
H    -0.39447172E+01   -0.69006968E+01   -0.79692890E-01
H    -0.31809613E+01   -0.18213912E+01   -0.14322697E+01
H    -0.44468467E+01   -0.15997540E+01   -0.35662126E+00
H    -0.30218683E+01   -0.23326469E+01    0.53018210E+00
          15
Time step:                 163 Sim. Time [au]        1630.00
Sn   -0.47175438E+01   -0.39098584E+01   -0.15056724E+01
C    -0.47343130E+01   -0.53328851E+01   -0.27571283E-01
C    -0.73634936E+01   -0.29067054E+01   -0.17909569E+01
C    -0.36259802E+01   -0.21572686E+01   -0.12251737E+01
O    -0.46279113E+01   -0.46129562E+01   -0.33055713E+01
H    -0.43707645E+01   -0.42950405E+01   -0.41367787E+01
H    -0.79314746E+01   -0.38243487E+01   -0.13332926E+01
H    -0.71292642E+01   -0.28343054E+01   -0.28306513E+01
H    -0.70495678E+01   -0.21195913E+01   -0.11734325E+01
H    -0.40501577E+01   -0.51907583E+01    0.77964191E+00
H    -0.57998588E+01   -0.54127052E+01    0.49262607E+00
H    -0.45251255E+01   -0.62539052E+01   -0.50614739E+00
H    -0.25943869E+01   -0.23925731E+01   -0.12673832E+01
H    -0.38969846E+01   -0.13810647E+01   -0.20737130E+01
H    -0.39656227E+01   -0.16359132E+01   -0.31292669E+00
          15
Time step:                2100 Sim. Time [au]       21000.00
Sn   -0.52939479E+01   -0.52502322E+01   -0.23121567E+01
C    -0.53525010E+01   -0.58382120E+01   -0.35958036E+00
C    -0.67353572E+01   -0.40522004E+01   -0.31215858E+01
C    -0.23351610E+01    0.54670449E+01    0.48606705E+01
O    -0.36324987E+01   -0.47187405E+01   -0.27928071E+01
H    -0.35145675E+01   -0.39571623E+01   -0.33432826E+01
H    -0.66721641E+01   -0.36701939E+01   -0.41146009E+01
H    -0.67377152E+01   -0.33605216E+01   -0.23318188E+01
H    -0.78006828E+01   -0.44861349E+01   -0.28677251E+01
H    -0.52446547E+01   -0.47971962E+01    0.38061384E-01
H    -0.62691159E+01   -0.61436870E+01    0.24425287E+00
H    -0.44972987E+01   -0.64765132E+01   -0.23621870E-02
H    -0.32477281E+01    0.58045594E+01    0.45206483E+01
H    -0.20658924E+01    0.55867160E+01    0.59456591E+01
H    -0.15768533E+01    0.58618056E+01    0.41717449E+01
          15
Time step:                2100 Sim. Time [au]       21000.00
Sn   -0.41471021E+01   -0.51109883E+01   -0.23968697E+01
C    -0.54247231E+01   -0.60516960E+01   -0.95545769E+00
C    -0.49339082E+01   -0.40373320E+01   -0.40212974E+01
C    -0.86352654E+01    0.23898875E+01    0.11809087E+01
O    -0.29016315E+01   -0.41203108E+01   -0.14438249E+01
H    -0.22871035E+01   -0.34618267E+01   -0.11125806E+01
H    -0.47550464E+01   -0.30410418E+01   -0.35727211E+01
H    -0.60022465E+01   -0.44209799E+01   -0.38654881E+01
H    -0.44946284E+01   -0.42140438E+01   -0.49476011E+01
H    -0.48714814E+01   -0.58132805E+01   -0.16552772E+00
H    -0.61300369E+01   -0.53216104E+01   -0.10341137E+01
H    -0.59253008E+01   -0.70208813E+01   -0.12685844E+01
H    -0.84117076E+01    0.33417707E+01    0.69199924E+00
H    -0.96516710E+01    0.20346300E+01    0.87315236E+00
H    -0.80266882E+01    0.17395683E+01    0.18253289E+01
          15
Time step:                 182 Sim. Time [au]        1820.00
Sn   -0.39689784E+01   -0.40076842E+01   -0.20654668E+01
C    -0.57930700E+01   -0.46379189E+01   -0.13088824E+01
C    -0.32321521E+01   -0.42513999E+01   -0.40115384E+01
C    -0.45313258E+01   -0.85665953E+00   -0.22512949E+01
O    -0.26882663E+01   -0.37038947E+01   -0.69642361E+00
H    -0.17996996E+01   -0.34338425E+01   -0.79101667E+00
H    -0.38397714E+01   -0.35809678E+01   -0.45484383E+01
H    -0.36403695E+01   -0.50255506E+01   -0.46536338E+01
H    -0.21999191E+01   -0.42106756E+01   -0.38575444E+01
H    -0.61286123E+01   -0.41390147E+01   -0.32902571E+00
H    -0.65495746E+01   -0.47837799E+01   -0.20438453E+01
H    -0.55207619E+01   -0.56522560E+01   -0.10973154E+01
H    -0.49278496E+01   -0.86703359E+00   -0.32697269E+01
H    -0.53536820E+01   -0.86438445E+00   -0.15787446E+01
H    -0.35838444E+01   -0.74742702E+00   -0.19585554E+01
          15
Time step:                2100 Sim. Time [au]       21000.00
Sn   -0.30120449E+01   -0.31313313E+01   -0.23304708E+01
C    -0.14010915E+02   -0.68982833E+01    0.23666077E+00
C    -0.24964048E+01   -0.50557992E+01   -0.28796883E+01
C    -0.33109078E+01   -0.12827182E+01   -0.32993304E+01
O    -0.42533869E+01   -0.31498078E+01   -0.93823736E+00
H    -0.47405776E+01   -0.23605824E+01   -0.85930343E+00
H    -0.23042209E+01   -0.51340276E+01   -0.39607623E+01
H    -0.33140417E+01   -0.55800707E+01   -0.26507841E+01
H    -0.16676267E+01   -0.55401956E+01   -0.25494138E+01
H    -0.13524318E+02   -0.60717209E+01    0.71400799E+00
H    -0.14258916E+02   -0.68006072E+01   -0.76939262E+00
H    -0.14032191E+02   -0.79020661E+01    0.73281805E+00
H    -0.24316251E+01   -0.69086825E+00   -0.29787871E+01
H    -0.34920586E+01   -0.12424953E+01   -0.43721736E+01
H    -0.41290991E+01   -0.88826981E+00   -0.27118453E+01
          15
Time step:                2051 Sim. Time [au]       20510.00
Sn   -0.47133563E+01   -0.29068427E+01   -0.26260053E+01
C    -0.67647486E+01   -0.35742988E+01   -0.25045779E+01
C    -0.25918143E+01   -0.74074852E+01   -0.31867952E+01
C    -0.36110927E+01   -0.20875311E+01   -0.41731892E+01
O    -0.37540229E+01   -0.28451535E+01   -0.10232158E+01
H    -0.29912320E+01   -0.22572472E+01   -0.87118228E+00
H    -0.34893627E+01   -0.78488545E+01   -0.30550636E+01
H    -0.18174518E+01   -0.72948005E+01   -0.24531345E+01
H    -0.22342092E+01   -0.70521124E+01   -0.41264112E+01
H    -0.68170629E+01   -0.36628597E+01   -0.14286200E+01
H    -0.74486628E+01   -0.28249195E+01   -0.29343577E+01
H    -0.69738209E+01   -0.43323910E+01   -0.30742293E+01
H    -0.30052745E+01   -0.11332547E+01   -0.39451998E+01
H    -0.29851776E+01   -0.29362837E+01   -0.43478178E+01
H    -0.42557597E+01   -0.20334470E+01   -0.51197711E+01
          15
Time step:                2100 Sim. Time [au]       21000.00
Sn   -0.39523619E+01   -0.26583039E+01   -0.23705023E+01
C    -0.14274167E+02   -0.38731311E+01   -0.47763997E+01
C    -0.30905440E+01   -0.43826117E+01   -0.33573247E+01
C    -0.32681473E+01   -0.71044579E+00   -0.19135300E+01
O    -0.55548791E+01   -0.30567033E+01   -0.17397005E+01
H    -0.63463389E+01   -0.27860743E+01   -0.12780942E+01
H    -0.25976050E+01   -0.50147120E+01   -0.26717233E+01
H    -0.23888256E+01   -0.39664958E+01   -0.40942184E+01
H    -0.40454040E+01   -0.47849430E+01   -0.36628878E+01
H    -0.15023323E+02   -0.35069658E+01   -0.55085707E+01
H    -0.14637859E+02   -0.46192012E+01   -0.40140845E+01
H    -0.13418221E+02   -0.33093035E+01   -0.46659143E+01
H    -0.40709268E+01   -0.19333680E+00   -0.25387407E+01
H    -0.33102171E+01   -0.30060114E+00   -0.88974774E+00
H    -0.23933160E+01   -0.45902866E+00   -0.23116718E+01
          15
Time step:                 101 Sim. Time [au]        1010.00
Sn   -0.50032431E+01   -0.25248035E+01   -0.26140701E+01
C    -0.70919715E+01   -0.26692496E+01   -0.32047299E+01
C    -0.35938868E+01   -0.31380256E+01   -0.43103458E+01
C    -0.43165106E+01   -0.56686347E+00   -0.16054780E+01
O    -0.48300465E+01   -0.36571043E+01   -0.12468162E+01
H    -0.43131382E+01   -0.45765303E+01   -0.12810345E+01
H    -0.38130612E+01   -0.25139629E+01   -0.50829150E+01
H    -0.42873256E+01   -0.39673495E+01   -0.43236428E+01
H    -0.26117181E+01   -0.34511809E+01   -0.42958435E+01
H    -0.75033881E+01   -0.20032490E+01   -0.39362947E+01
H    -0.71202336E+01   -0.36905168E+01   -0.37394639E+01
H    -0.77334582E+01   -0.28204406E+01   -0.24141471E+01
H    -0.52681020E+01   -0.28188420E+00   -0.14666032E+01
H    -0.37791521E+01   -0.11763017E+01   -0.84629779E+00
H    -0.36691593E+01    0.54555661E-01   -0.22375478E+01
          15
Time step:                2100 Sim. Time [au]       21000.00
Sn   -0.49164207E+01   -0.32222216E+01   -0.33945491E+01
C    -0.68369282E+01   -0.26632944E+01   -0.26882778E+01
C    -0.36385254E+01   -0.18903158E+01   -0.43706562E+01
C    -0.33179880E+01    0.11848972E+01    0.27162818E+01
O    -0.40611868E+01   -0.41658516E+01   -0.21425599E+01
H    -0.32472708E+01   -0.38204992E+01   -0.16630077E+01
H    -0.26080410E+01   -0.22245344E+01   -0.43685287E+01
H    -0.38043784E+01   -0.99400584E+00   -0.36318457E+01
H    -0.39766960E+01   -0.16682907E+01   -0.53743107E+01
H    -0.72304765E+01   -0.34056839E+01   -0.21415914E+01
H    -0.68899288E+01   -0.17327884E+01   -0.20970645E+01
H    -0.74627023E+01   -0.25567737E+01   -0.34928129E+01
H    -0.41013178E+01    0.40582938E+00    0.28648761E+01
H    -0.26612679E+01    0.97872091E+00    0.18963970E+01
H    -0.36324440E+01    0.21970001E+01    0.28544836E+01
          15
Time step:                2100 Sim. Time [au]       21000.00
Sn   -0.52942499E+01   -0.24559422E+01   -0.35447807E+01
C    -0.73687219E+01   -0.28609954E+01   -0.30849212E+01
C    -0.41976037E+01   -0.73519263E+00   -0.40634380E+01