   15
Time step:                2100 Sim. Time [au]       21000.00
Sn    -3.391938    -2.207715     5.572844
 C     3.522055     1.417344     3.418001
 C    -2.997557    -1.542550     7.512945
 C    -4.721993    -1.407358     3.913850
 O    -3.760586    -3.910481     5.462934
 H    -4.001216    -4.712001     5.800004
 H    -3.802753    -1.674876     8.434197
 H    -2.901021    -0.407991     7.347141
 H    -2.066744    -2.091402     7.840223
 H     4.136134     1.034585     4.327716
 H     3.858702     0.862215     2.649827
 H     2.683019     1.840035     3.670014
 H    -4.755818    -0.518951     4.534166
 H    -4.172646    -1.260482     2.906933
 H    -4.991284    -2.376990     3.632792
 