   15
Time step:                2100 Sim. Time [au]       21000.00
Sn    -4.336617    -0.817725     3.376297
 C    -7.569141    -0.877109     3.519252
 C    -4.075764     0.663525     1.837488
 C    -3.789031    -0.701136     5.508951
 O    -4.907905    -2.510732     2.895171
 H    -4.472541    -3.421548     2.568482
 H    -3.363572     1.527843     1.791119
 H    -5.047614     1.110409     1.756332
 H    -3.943552     0.138604     0.868637
 H    -8.193696    -0.984230     4.265289
 H   -15.075084    -3.608281    -6.506410
 H    -8.421662    -0.951981     2.695933
 H    -4.202525    -1.571848     5.982588
 H    -2.800410    -0.881537     5.669040
 H    -4.022350     0.249027     6.015039
