          15
Time step:                   1 Sim. Time [au]          10.00
Sn   -0.46054825E+01   -0.43622322E+01   -0.20396161E+01
C    -0.52930387E+01   -0.62406860E+01   -0.12893583E+01
C    -0.47409347E+01   -0.44597932E+01   -0.41329224E+01
C    -0.54603571E+01   -0.26708926E+01   -0.10965988E+01
O    -0.28274112E+01   -0.42166327E+01   -0.14971982E+01
H    -0.20051849E+01   -0.46042968E+01   -0.14131912E+01
H    -0.53044736E+01   -0.36147632E+01   -0.47135265E+01
H    -0.53981651E+01   -0.53100175E+01   -0.42748730E+01
H    -0.38123717E+01   -0.47171284E+01   -0.45453330E+01
H    -0.54111024E+01   -0.63026340E+01   -0.35813852E+00
H    -0.62655188E+01   -0.65459010E+01   -0.15019780E+01
H    -0.45830216E+01   -0.70790072E+01   -0.14739532E+01
H    -0.65070403E+01   -0.23548325E+01   -0.15483474E+01
H    -0.53901948E+01   -0.28616328E+01    0.16456920E-01
H    -0.47740571E+01   -0.18495897E+01   -0.15423084E+01
          15
Time step:                   2 Sim. Time [au]          20.00
Sn   -0.46054653E+01   -0.43622613E+01   -0.20396208E+01
C    -0.52929115E+01   -0.62407541E+01   -0.12897365E+01
C    -0.47411695E+01   -0.44596305E+01   -0.41330666E+01
C    -0.54605345E+01   -0.26704926E+01   -0.10965863E+01
O    -0.28275754E+01   -0.42165412E+01   -0.14972241E+01
H    -0.20035551E+01   -0.46052743E+01   -0.14130004E+01
H    -0.53029481E+01   -0.36160738E+01   -0.47123606E+01
H    -0.53982248E+01   -0.53102287E+01   -0.42744520E+01
H    -0.38111686E+01   -0.47169302E+01   -0.45457151E+01
H    -0.54111632E+01   -0.63022172E+01   -0.35099155E+00
H    -0.62668363E+01   -0.65459534E+01   -0.15036109E+01
H    -0.45833569E+01   -0.70779334E+01   -0.14745291E+01
H    -0.65050443E+01   -0.23563114E+01   -0.15471515E+01
H    -0.53902872E+01   -0.28615880E+01    0.14970550E-01
H    -0.47745712E+01   -0.18512057E+01   -0.15413115E+01
          15
Time step:                   3 Sim. Time [au]          30.00
Sn   -0.46054364E+01   -0.43623100E+01   -0.20396288E+01
C    -0.52927086E+01   -0.62408693E+01   -0.12903380E+01
C    -0.47415549E+01   -0.44593617E+01   -0.41333031E+01
C    -0.54608298E+01   -0.26698261E+01   -0.10965644E+01
O    -0.28278455E+01   -0.42163918E+01   -0.14972678E+01
H    -0.20009350E+01   -0.46068554E+01   -0.14126920E+01
H    -0.53004247E+01   -0.36182306E+01   -0.47104439E+01
H    -0.53983241E+01   -0.53105823E+01   -0.42737532E+01
H    -0.38091975E+01   -0.47165950E+01   -0.45463532E+01
H    -0.54112235E+01   -0.63015151E+01   -0.33944811E+00
H    -0.62689809E+01   -0.65460149E+01   -0.15063092E+01
H    -0.45838954E+01   -0.70761584E+01   -0.14754806E+01
H    -0.65017474E+01   -0.23587687E+01   -0.15451716E+01
H    -0.53904375E+01   -0.28615233E+01    0.12519272E-01
H    -0.47754088E+01   -0.18538836E+01   -0.15396645E+01
          15
Time step:                   4 Sim. Time [au]          40.00
Sn   -0.46053959E+01   -0.43623782E+01   -0.20396398E+01
C    -0.52924411E+01   -0.62410329E+01   -0.12911238E+01
C    -0.47420843E+01   -0.44589909E+01   -0.41336325E+01
C    -0.54612411E+01   -0.26688963E+01   -0.10965339E+01
O    -0.28282134E+01   -0.42161881E+01   -0.14973287E+01
H    -0.19974480E+01   -0.46089824E+01   -0.14122771E+01
H    -0.52969350E+01   -0.36211957E+01   -0.47078044E+01
H    -0.53984626E+01   -0.53110740E+01   -0.42727777E+01
H    -0.38065076E+01   -0.47161124E+01   -0.45472212E+01
H    -0.54112329E+01   -0.63005087E+01   -0.32401628E+00
H    -0.62718871E+01   -0.65460663E+01   -0.15100384E+01
H    -0.45846212E+01   -0.70737059E+01   -0.14768014E+01
H    -0.64971970E+01   -0.23621875E+01   -0.15424283E+01
H    -0.53906420E+01   -0.28614470E+01    0.91396556E-02
H    -0.47765485E+01   -0.18575933E+01   -0.15373812E+01
          15
Time step:                   5 Sim. Time [au]          50.00
Sn   -0.46053446E+01   -0.43624660E+01   -0.20396531E+01
C    -0.52921192E+01   -0.62412441E+01   -0.12920479E+01
C    -0.47427538E+01   -0.44585256E+01   -0.41340677E+01
C    -0.54617611E+01   -0.26677158E+01   -0.10964986E+01
O    -0.28286615E+01   -0.42159322E+01   -0.14974028E+01
H    -0.19932323E+01   -0.46116015E+01   -0.14117672E+01
H    -0.52925264E+01   -0.36249242E+01   -0.47044503E+01
H    -0.53986311E+01   -0.53116791E+01   -0.42715249E+01
H    -0.38031641E+01   -0.47154662E+01   -0.45482242E+01
H    -0.54111418E+01   -0.62991574E+01   -0.30532755E+00
H    -0.62754831E+01   -0.65461176E+01   -0.15147476E+01
H    -0.45855394E+01   -0.70706126E+01   -0.14784948E+01
H    -0.64914732E+01   -0.23665212E+01   -0.15389599E+01
H    -0.53909024E+01   -0.28613551E+01    0.48780305E-02
H    -0.47779778E+01   -0.18622635E+01   -0.15344732E+01
          15
Time step:                   6 Sim. Time [au]          60.00
Sn   -0.46052819E+01   -0.43625734E+01   -0.20396689E+01
C    -0.52917635E+01   -0.62415052E+01   -0.12930565E+01
C    -0.47435461E+01   -0.44579709E+01   -0.41345959E+01
C    -0.54623915E+01   -0.26662832E+01   -0.10964570E+01
O    -0.28291837E+01   -0.42156319E+01   -0.14974923E+01
H    -0.19885010E+01   -0.46146022E+01   -0.14111832E+01
H    -0.52872594E+01   -0.36293380E+01   -0.47004679E+01
H    -0.53988442E+01   -0.53124125E+01   -0.42700060E+01
H    -0.37992497E+01   -0.47146452E+01   -0.45493771E+01
H    -0.54108761E+01   -0.62974606E+01   -0.28407253E+00
H    -0.62796452E+01   -0.65461064E+01   -0.15203854E+01
H    -0.45865959E+01   -0.70669191E+01   -0.14805405E+01
H    -0.64846487E+01   -0.23717566E+01   -0.15347889E+01
H    -0.53912080E+01   -0.28612787E+01   -0.19521282E-03
H    -0.47796353E+01   -0.18678658E+01   -0.15309821E+01
          15
Time step:                   7 Sim. Time [au]          70.00
Sn   -0.46052085E+01   -0.43627004E+01   -0.20396863E+01
C    -0.52913881E+01   -0.62418137E+01   -0.12940997E+01
C    -0.47444543E+01   -0.44573375E+01   -0.41352295E+01
C    -0.54631205E+01   -0.26646160E+01   -0.10964105E+01
O    -0.28297597E+01   -0.42152905E+01   -0.14975929E+01
H    -0.19834396E+01   -0.46179096E+01   -0.14105418E+01
H    -0.52812040E+01   -0.36343629E+01   -0.46958767E+01
H    -0.53990808E+01   -0.53132426E+01   -0.42682284E+01
H    -0.37948542E+01   -0.47136380E+01   -0.45505702E+01
H    -0.54103882E+01   -0.62953908E+01   -0.26095367E+00
H    -0.62842664E+01   -0.65460305E+01   -0.15268802E+01
H    -0.45877807E+01   -0.70626814E+01   -0.14829365E+01
H    -0.64768641E+01   -0.23778224E+01   -0.15299904E+01
H    -0.53915584E+01   -0.28612163E+01   -0.60051532E-02
H    -0.47814946E+01   -0.18742877E+01   -0.15269348E+01
          15
Time step:                   8 Sim. Time [au]          80.00
Sn   -0.46051245E+01   -0.43628471E+01   -0.20397052E+01
C    -0.52910115E+01   -0.62421683E+01   -0.12951290E+01
C    -0.47454633E+01   -0.44566346E+01   -0.41359673E+01
C    -0.54639413E+01   -0.26627250E+01   -0.10963585E+01
O    -0.28303750E+01   -0.42149140E+01   -0.14977034E+01
H    -0.19782632E+01   -0.46214234E+01   -0.14098637E+01
H    -0.52744486E+01   -0.36398988E+01   -0.46907463E+01
H    -0.53993386E+01   -0.53141639E+01   -0.42662091E+01
H    -0.37900780E+01   -0.47124378E+01   -0.45517475E+01
H    -0.54096285E+01   -0.62929434E+01   -0.23664451E+00
H    -0.62892128E+01   -0.65458528E+01   -0.15341581E+01
H    -0.45890539E+01   -0.70579576E+01   -0.14856704E+01
H    -0.64682648E+01   -0.23846626E+01   -0.15246309E+01
H    -0.53919468E+01   -0.28611868E+01   -0.12458201E-01
H    -0.47834967E+01   -0.18814363E+01   -0.15223778E+01
          15
Time step:                   9 Sim. Time [au]          90.00
Sn   -0.46050302E+01   -0.43630136E+01   -0.20397252E+01
C    -0.52906522E+01   -0.62425675E+01   -0.12961013E+01
C    -0.47465561E+01   -0.44558714E+01   -0.41368068E+01
C    -0.54648455E+01   -0.26606229E+01   -0.10962997E+01
O    -0.28310154E+01   -0.42145083E+01   -0.14978224E+01
H    -0.19731845E+01   -0.46250437E+01   -0.14091693E+01
H    -0.52670989E+01   -0.36458311E+01   -0.46851558E+01
H    -0.53996178E+01   -0.53151767E+01   -0.42639739E+01
H    -0.37850259E+01   -0.47110468E+01   -0.45528487E+01
H    -0.54085596E+01   -0.62901201E+01   -0.21176260E+00
H    -0.62943426E+01   -0.65455307E+01   -0.15421369E+01
H    -0.45903722E+01   -0.70528058E+01   -0.14887276E+01
H    -0.64590243E+01   -0.23922120E+01   -0.15187898E+01
H    -0.53923651E+01   -0.28612124E+01   -0.19447448E-01
H    -0.47855715E+01   -0.18892033E+01   -0.15173664E+01
          15
Time step:                  10 Sim. Time [au]         100.00
Sn   -0.46049247E+01   -0.43632001E+01   -0.20397462E+01
C    -0.52903299E+01   -0.62430138E+01   -0.12969797E+01
C    -0.47477092E+01   -0.44550604E+01   -0.41377321E+01
C    -0.54658282E+01   -0.26583183E+01   -0.10962287E+01
O    -0.28316743E+01   -0.42140810E+01   -0.14979521E+01
H    -0.19684272E+01   -0.46286576E+01   -0.14084818E+01
H    -0.52592857E+01   -0.36519986E+01   -0.46792426E+01
H    -0.53999257E+01   -0.53162870E+01   -0.42615554E+01
H    -0.37798032E+01   -0.47094639E+01   -0.45538659E+01
H    -0.54071497E+01   -0.62869404E+01   -0.18685271E+00
H    -0.62994931E+01   -0.65449791E+01   -0.15507321E+01
H    -0.45916781E+01   -0.70472599E+01   -0.14920763E+01
H    -0.64493351E+01   -0.24004019E+01   -0.15125528E+01
H    -0.53927966E+01   -0.28613349E+01   -0.26850651E-01
H    -0.47876205E+01   -0.18974759E+01   -0.15119816E+01
          15
Time step:                  11 Sim. Time [au]         110.00
Sn   -0.46048082E+01   -0.43634068E+01   -0.20397678E+01
C    -0.52900606E+01   -0.62435143E+01   -0.12977399E+01
C    -0.47489099E+01   -0.44541953E+01   -0.41387413E+01
C    -0.54668780E+01   -0.26558282E+01   -0.10961427E+01
O    -0.28323391E+01   -0.42136374E+01   -0.14980912E+01
H    -0.19641724E+01   -0.46321774E+01   -0.14078186E+01
H    -0.52511345E+01   -0.36583079E+01   -0.46730572E+01
H    -0.54002585E+01   -0.53175643E+01   -0.42590358E+01
H    -0.37744730E+01   -0.47077880E+01   -0.45547301E+01
H    -0.54053735E+01   -0.62834129E+01   -0.16236445E+00
H    -0.63045013E+01   -0.65441025E+01   -0.15598548E+01
H    -0.45929494E+01   -0.70413255E+01   -0.14956595E+01
H    -0.64394310E+01   -0.24091448E+01   -0.15060284E+01
H    -0.53932298E+01   -0.28615820E+01   -0.34539361E-01
H    -0.47895529E+01   -0.19061074E+01   -0.15062963E+01
          15
Time step:                  12 Sim. Time [au]         120.00
Sn   -0.46046802E+01   -0.43636339E+01   -0.20397893E+01
C    -0.52898715E+01   -0.62440489E+01   -0.12983440E+01
C    -0.47500864E+01   -0.44533330E+01   -0.41398321E+01
C    -0.54679787E+01   -0.26531717E+01   -0.10960383E+01
O    -0.28329993E+01   -0.42131812E+01   -0.14982392E+01
H    -0.19606065E+01   -0.46355313E+01   -0.14071973E+01
H    -0.52430074E+01   -0.36644403E+01   -0.46668271E+01
H    -0.54007318E+01   -0.53188592E+01   -0.42564268E+01
H    -0.37693697E+01   -0.47058323E+01   -0.45552603E+01
H    -0.54033712E+01   -0.62795301E+01   -0.13880704E+00
H    -0.63091968E+01   -0.65429927E+01   -0.15692415E+01
H    -0.45939862E+01   -0.70351319E+01   -0.14996872E+01
H    -0.64295818E+01   -0.24183314E+01   -0.14993326E+01
H    -0.53936684E+01   -0.28619877E+01   -0.42367342E-01
H    -0.47912728E+01   -0.19149355E+01   -0.15003993E+01
          15
Time step:                  13 Sim. Time [au]         130.00
Sn   -0.46045409E+01   -0.43638815E+01   -0.20398108E+01
C    -0.52897750E+01   -0.62446124E+01   -0.12987777E+01
C    -0.47512732E+01   -0.44524640E+01   -0.41409928E+01
C    -0.54691170E+01   -0.26503708E+01   -0.10959088E+01
O    -0.28336451E+01   -0.42127164E+01   -0.14983945E+01
H    -0.19578655E+01   -0.46386511E+01   -0.14066337E+01
H    -0.52348056E+01   -0.36702827E+01   -0.46606216E+01
H    -0.54011851E+01   -0.53202587E+01   -0.42536879E+01
H    -0.37643807E+01   -0.47037075E+01   -0.45555513E+01
H    -0.54010614E+01   -0.62753439E+01   -0.11648642E+00
H    -0.63134696E+01   -0.65415705E+01   -0.15788986E+01
H    -0.45947811E+01   -0.70287679E+01   -0.15040397E+01
H    -0.64200795E+01   -0.24278547E+01   -0.14926035E+01
H    -0.53940991E+01   -0.28625768E+01   -0.50192219E-01
H    -0.47926646E+01   -0.19237859E+01   -0.14943874E+01
          15
Time step:                  14 Sim. Time [au]         140.00
Sn   -0.46043912E+01   -0.43641500E+01   -0.20398322E+01
C    -0.52897856E+01   -0.62451969E+01   -0.12990277E+01
C    -0.47524706E+01   -0.44516132E+01   -0.41422152E+01
C    -0.54702733E+01   -0.26474552E+01   -0.10957447E+01
O    -0.28342613E+01   -0.42122440E+01   -0.14985531E+01
H    -0.19560496E+01   -0.46414952E+01   -0.14061363E+01
H    -0.52265877E+01   -0.36755994E+01   -0.46545943E+01
H    -0.54015377E+01   -0.53217212E+01   -0.42507676E+01
H    -0.37595538E+01   -0.47013834E+01   -0.45556049E+01
H    -0.53984482E+01   -0.62708877E+01   -0.95686738E-01
H    -0.63172060E+01   -0.65398133E+01   -0.15887364E+01
H    -0.45952803E+01   -0.70223046E+01   -0.15087013E+01
H    -0.64112615E+01   -0.24375803E+01   -0.14860067E+01
H    -0.53945242E+01   -0.28633629E+01   -0.57869988E-01
H    -0.47936192E+01   -0.19324490E+01   -0.14883715E+01
          15
Time step:                  15 Sim. Time [au]         150.00
Sn   -0.46042308E+01   -0.43644405E+01   -0.20398536E+01
C    -0.52899114E+01   -0.62458135E+01   -0.12990936E+01
C    -0.47536657E+01   -0.44508072E+01   -0.41434806E+01
C    -0.54714302E+01   -0.26444660E+01   -0.10955196E+01
O    -0.28348495E+01   -0.42117675E+01   -0.14987175E+01
H    -0.19552648E+01   -0.46440093E+01   -0.14057153E+01
H    -0.52184520E+01   -0.36801544E+01   -0.46489483E+01
H    -0.54017586E+01   -0.53231814E+01   -0.42476177E+01
H    -0.37549389E+01   -0.46988088E+01   -0.45554367E+01
H    -0.53955414E+01   -0.62662025E+01   -0.76612462E-01
H    -0.63202488E+01   -0.65375683E+01   -0.15986554E+01
H    -0.45954652E+01   -0.70156769E+01   -0.15135821E+01
H    -0.64035166E+01   -0.24472748E+01   -0.14797698E+01
H    -0.53949291E+01   -0.28643720E+01   -0.65257960E-01
H    -0.47939817E+01   -0.19405794E+01   -0.14825607E+01
          15
Time step:                  16 Sim. Time [au]         160.00
Sn   -0.46040617E+01   -0.43647545E+01   -0.20398756E+01
C    -0.52901530E+01   -0.62464921E+01   -0.12989890E+01
C    -0.47548339E+01   -0.44500801E+01   -0.41447756E+01
C    -0.54725596E+01   -0.26414681E+01   -0.10951956E+01
O    -0.28353994E+01   -0.42112852E+01   -0.14988844E+01
H    -0.19555444E+01   -0.46461885E+01   -0.14053678E+01
H    -0.52105609E+01   -0.36836713E+01   -0.46438958E+01
H    -0.54018529E+01   -0.53245569E+01   -0.42442052E+01
H    -0.37506615E+01   -0.46959095E+01   -0.45550080E+01
H    -0.53923902E+01   -0.62613114E+01   -0.59408940E-01
H    -0.63224219E+01   -0.65346010E+01   -0.16084892E+01
H    -0.45953823E+01   -0.70086486E+01   -0.15185655E+01
H    -0.63973163E+01   -0.24566429E+01   -0.14742446E+01
H    -0.53952846E+01   -0.28655819E+01   -0.72233621E-01
H    -0.47936176E+01   -0.19476891E+01   -0.14771783E+01
          15
Time step:                  17 Sim. Time [au]         170.00
Sn   -0.46038832E+01   -0.43650911E+01   -0.20398979E+01
C    -0.52905120E+01   -0.62471999E+01   -0.12986943E+01
C    -0.47559340E+01   -0.44494524E+01   -0.41460880E+01
C    -0.54736570E+01   -0.26384591E+01   -0.10947831E+01
O    -0.28359155E+01   -0.42107992E+01   -0.14990558E+01
H    -0.19569272E+01   -0.46480093E+01   -0.14051068E+01
H    -0.52031607E+01   -0.36859468E+01   -0.46395702E+01
H    -0.54018877E+01   -0.53258396E+01   -0.42405984E+01
H    -0.37468806E+01   -0.46926816E+01   -0.45542326E+01
H    -0.53889923E+01   -0.62562554E+01   -0.44252581E-01
H    -0.63237845E+01   -0.65310387E+01   -0.16182480E+01
H    -0.45949753E+01   -0.70014736E+01   -0.15236922E+01
H    -0.63928584E+01   -0.24657438E+01   -0.14695312E+01
H    -0.53955122E+01   -0.28670270E+01   -0.78627621E-01
H    -0.47924263E+01   -0.19537561E+01   -0.14721762E+01
          15
Time step:                  18 Sim. Time [au]         180.00
Sn   -0.46036955E+01   -0.43654487E+01   -0.20399207E+01
C    -0.52910006E+01   -0.62478888E+01   -0.12981841E+01
C    -0.47569531E+01   -0.44489367E+01   -0.41474120E+01
C    -0.54747121E+01   -0.26354196E+01   -0.10943063E+01
O    -0.28363887E+01   -0.42103092E+01   -0.14992281E+01
H    -0.19594200E+01   -0.46494625E+01   -0.14049367E+01
H    -0.51963828E+01   -0.36868108E+01   -0.46360508E+01
H    -0.54018467E+01   -0.53270469E+01   -0.42368501E+01
H    -0.37436709E+01   -0.46891632E+01   -0.45530719E+01
H    -0.53853317E+01   -0.62510753E+01   -0.31304360E-01
H    -0.63244138E+01   -0.65271194E+01   -0.16279688E+01
H    -0.45941255E+01   -0.69945265E+01   -0.15290614E+01
H    -0.63902693E+01   -0.24747084E+01   -0.14655954E+01
H    -0.53956250E+01   -0.28687459E+01   -0.84288135E-01
H    -0.47903756E+01   -0.19589331E+01   -0.14674730E+01
          15
Time step:                  19 Sim. Time [au]         190.00
Sn   -0.46034970E+01   -0.43658264E+01   -0.20399439E+01
C    -0.52916298E+01   -0.62485337E+01   -0.12974454E+01
C    -0.47578844E+01   -0.44485443E+01   -0.41487335E+01
C    -0.54757234E+01   -0.26323394E+01   -0.10937763E+01
O    -0.28368263E+01   -0.42098168E+01   -0.14994036E+01
H    -0.19630141E+01   -0.46505409E+01   -0.14048632E+01
H    -0.51903141E+01   -0.36861273E+01   -0.46334447E+01
H    -0.54017187E+01   -0.53281712E+01   -0.42329944E+01
H    -0.37410442E+01   -0.46853735E+01   -0.45515326E+01
H    -0.53814116E+01   -0.62458181E+01   -0.20678760E-01
H    -0.63243238E+01   -0.65229435E+01   -0.16376424E+01
H    -0.45927313E+01   -0.69880049E+01   -0.15347111E+01
H    -0.63896608E+01   -0.24835631E+01   -0.14624200E+01
H    -0.53956280E+01   -0.28707960E+01   -0.89079217E-01
H    -0.47874012E+01   -0.19632811E+01   -0.14630883E+01
          15
Time step:                  20 Sim. Time [au]         200.00
Sn   -0.46032874E+01   -0.43662239E+01   -0.20399678E+01
C    -0.52924042E+01   -0.62491238E+01   -0.12964741E+01
C    -0.47587211E+01   -0.44482841E+01   -0.41500423E+01
C    -0.54766856E+01   -0.26292228E+01   -0.10931947E+01
O    -0.28372306E+01   -0.42093207E+01   -0.14995821E+01
H    -0.19676630E+01   -0.46512630E+01   -0.14048827E+01
H    -0.51850264E+01   -0.36837922E+01   -0.46318298E+01
H    -0.54014969E+01   -0.53292009E+01   -0.42290624E+01
H    -0.37390254E+01   -0.46813284E+01   -0.45496157E+01
H    -0.53772499E+01   -0.62405206E+01   -0.12453956E-01
H    -0.63235046E+01   -0.65185445E+01   -0.16472285E+01
H    -0.45907480E+01   -0.69819849E+01   -0.15406448E+01
H    -0.63911404E+01   -0.24922879E+01   -0.14600464E+01
H    -0.53955222E+01   -0.28732013E+01   -0.92897509E-01
H    -0.47834662E+01   -0.19667609E+01   -0.14590612E+01
          15
Time step:                  21 Sim. Time [au]         210.00
Sn   -0.46030667E+01   -0.43666410E+01   -0.20399925E+01
C    -0.52933253E+01   -0.62496520E+01   -0.12952693E+01
C    -0.47594591E+01   -0.44481601E+01   -0.41513303E+01
C    -0.54775968E+01   -0.26260739E+01   -0.10925629E+01
O    -0.28376059E+01   -0.42088186E+01   -0.14997634E+01
H    -0.19732920E+01   -0.46516618E+01   -0.14049884E+01
H    -0.51805638E+01   -0.36797555E+01   -0.46312506E+01
H    -0.54011789E+01   -0.53301253E+01   -0.42250877E+01
H    -0.37376305E+01   -0.46770461E+01   -0.45473265E+01
H    -0.53728685E+01   -0.62352182E+01   -0.66862007E-02
H    -0.63219527E+01   -0.65139450E+01   -0.16566855E+01
H    -0.45881545E+01   -0.69765038E+01   -0.15468564E+01
H    -0.63947495E+01   -0.25008648E+01   -0.14585002E+01
H    -0.53953068E+01   -0.28759768E+01   -0.95665561E-01
H    -0.47785563E+01   -0.19693371E+01   -0.14554247E+01
          15
Time step:                  22 Sim. Time [au]         220.00
Sn   -0.46028346E+01   -0.43670775E+01   -0.20400185E+01
C    -0.52943917E+01   -0.62501138E+01   -0.12938316E+01
C    -0.47600975E+01   -0.44481709E+01   -0.41525915E+01
C    -0.54784593E+01   -0.26228952E+01   -0.10918826E+01
O    -0.28379580E+01   -0.42083075E+01   -0.14999474E+01
H    -0.19797993E+01   -0.46517846E+01   -0.14051703E+01
H    -0.51769393E+01   -0.36740269E+01   -0.46317139E+01
H    -0.54007660E+01   -0.53309364E+01   -0.42211061E+01
H    -0.37368652E+01   -0.46725479E+01   -0.45446754E+01
H    -0.53682915E+01   -0.62299458E+01   -0.34132739E-02
H    -0.63196749E+01   -0.65091659E+01   -0.16659744E+01
H    -0.45849505E+01   -0.69715709E+01   -0.15533329E+01
H    -0.64004546E+01   -0.25092838E+01   -0.14577812E+01
H    -0.53949820E+01   -0.28791283E+01   -0.97334650E-01
H    -0.47726829E+01   -0.19709930E+01   -0.14521995E+01
          15
Time step:                  23 Sim. Time [au]         230.00
Sn   -0.46025910E+01   -0.43675332E+01   -0.20400460E+01
C    -0.52955993E+01   -0.62505069E+01   -0.12921630E+01
C    -0.47606386E+01   -0.44483097E+01   -0.41538225E+01
C    -0.54792793E+01   -0.26196878E+01   -0.10911566E+01
O    -0.28382944E+01   -0.42077833E+01   -0.15001345E+01
H    -0.19870576E+01   -0.46516926E+01   -0.14054156E+01
H    -0.51741344E+01   -0.36666769E+01   -0.46331891E+01
H    -0.54002618E+01   -0.53316291E+01   -0.42171552E+01
H    -0.37367232E+01   -0.46678585E+01   -0.45416781E+01
H    -0.53635446E+01   -0.62247376E+01   -0.26561571E-02
H    -0.63166890E+01   -0.65042285E+01   -0.16750604E+01
H    -0.45811561E+01   -0.69671719E+01   -0.15600554E+01
H    -0.64081464E+01   -0.25175419E+01   -0.14578603E+01
H    -0.53945503E+01   -0.28826524E+01   -0.97886822E-01
H    -0.47658844E+01   -0.19717351E+01   -0.14493931E+01
          15
Time step:                  24 Sim. Time [au]         240.00
Sn   -0.46023358E+01   -0.43680077E+01   -0.20400756E+01
C    -0.52969412E+01   -0.62508306E+01   -0.12902670E+01
C    -0.47610879E+01   -0.44485645E+01   -0.41550222E+01
C    -0.54800661E+01   -0.26164511E+01   -0.10903882E+01
O    -0.28386240E+01   -0.42072413E+01   -0.15003247E+01
H    -0.19949151E+01   -0.46514603E+01   -0.14057086E+01
H    -0.51721022E+01   -0.36578333E+01   -0.46356108E+01
H    -0.53996726E+01   -0.53322013E+01   -0.42132739E+01
H    -0.37371862E+01   -0.46630051E+01   -0.45383559E+01
H    -0.53586549E+01   -0.62196268E+01   -0.44198014E-02
H    -0.63130236E+01   -0.64991556E+01   -0.16839129E+01
H    -0.45768108E+01   -0.69632713E+01   -0.15669991E+01
H    -0.64176468E+01   -0.25256408E+01   -0.14586820E+01
H    -0.53940168E+01   -0.28865351E+01   -0.97335710E-01
H    -0.47582264E+01   -0.19715926E+01   -0.14469990E+01
          15
Time step:                  25 Sim. Time [au]         250.00
Sn   -0.46020699E+01   -0.43685008E+01   -0.20401078E+01
C    -0.52984079E+01   -0.62510856E+01   -0.12881476E+01
C    -0.47614537E+01   -0.44489168E+01   -0.41561954E+01
C    -0.54808265E+01   -0.26131861E+01   -0.10895808E+01
O    -0.28389511E+01   -0.42066747E+01   -0.15005162E+01
H    -0.20031926E+01   -0.46511799E+01   -0.14060285E+01
H    -0.51707762E+01   -0.36476777E+01   -0.46388601E+01
H    -0.53989960E+01   -0.53326592E+01   -0.42095059E+01
H    -0.37382329E+01   -0.46580323E+01   -0.45347252E+01
H    -0.53536536E+01   -0.62146425E+01   -0.86995019E-02
H    -0.63087148E+01   -0.64939752E+01   -0.16925010E+01
H    -0.45719764E+01   -0.69598171E+01   -0.15741422E+01
H    -0.64287319E+01   -0.25335917E+01   -0.14601867E+01
H    -0.53933929E+01   -0.28907388E+01   -0.95727959E-01
H    -0.47498153E+01   -0.19705943E+01   -0.14449854E+01
          15
Time step:                  26 Sim. Time [au]         260.00
Sn   -0.46017933E+01   -0.43690122E+01   -0.20401431E+01
C    -0.52999877E+01   -0.62512741E+01   -0.12858108E+01
C    -0.47617467E+01   -0.44493459E+01   -0.41573444E+01
C    -0.54815734E+01   -0.26098905E+01   -0.10887379E+01
O    -0.28392872E+01   -0.42060775E+01   -0.15007095E+01
H    -0.20116988E+01   -0.46509491E+01   -0.14063553E+01
H    -0.51700673E+01   -0.36364297E+01   -0.46428156E+01
H    -0.53982405E+01   -0.53330082E+01   -0.42058923E+01
H    -0.37398184E+01   -0.46529754E+01   -0.45308179E+01
H    -0.53485713E+01   -0.62098172E+01   -0.15468187E-01
H    -0.63038116E+01   -0.64887121E+01   -0.17008034E+01
H    -0.45667237E+01   -0.69567419E+01   -0.15814497E+01
H    -0.64411239E+01   -0.25413982E+01   -0.14622788E+01
H    -0.53926909E+01   -0.28952297E+01   -0.93136088E-01
H    -0.47407643E+01   -0.19688105E+01   -0.14433222E+01
          15
Time step:                  27 Sim. Time [au]         270.00
Sn   -0.46015048E+01   -0.43695414E+01   -0.20401816E+01
C    -0.53016677E+01   -0.62513993E+01   -0.12832650E+01
C    -0.47619786E+01   -0.44498316E+01   -0.41584682E+01
C    -0.54823257E+01   -0.26065598E+01   -0.10878636E+01
O    -0.28396502E+01   -0.42054443E+01   -0.15009076E+01
H    -0.20202326E+01   -0.46508693E+01   -0.14066682E+01
H    -0.51698735E+01   -0.36243226E+01   -0.46473722E+01
H    -0.53974304E+01   -0.53332473E+01   -0.42024681E+01
H    -0.37418813E+01   -0.46478505E+01   -0.45266817E+01
H    -0.53434351E+01   -0.62051843E+01   -0.24674353E-01
H    -0.62983730E+01   -0.64833887E+01   -0.17088097E+01
H    -0.45611347E+01   -0.69539632E+01   -0.15888716E+01
H    -0.64545051E+01   -0.25490506E+01   -0.14648326E+01
H    -0.53919217E+01   -0.28999776E+01   -0.89656948E-01
H    -0.47311883E+01   -0.19663479E+01   -0.14419826E+01
          15
Time step:                  28 Sim. Time [au]         280.00
Sn   -0.46012055E+01   -0.43700882E+01   -0.20402241E+01
C    -0.53034327E+01   -0.62514648E+01   -0.12805189E+01
C    -0.47621648E+01   -0.44503451E+01   -0.41595752E+01
C    -0.54830904E+01   -0.26031938E+01   -0.10869603E+01
O    -0.28400468E+01   -0.42047671E+01   -0.15011090E+01
H    -0.20285805E+01   -0.46510573E+01   -0.14069433E+01
H    -0.51700874E+01   -0.36116340E+01   -0.46523506E+01
H    -0.53965584E+01   -0.53333972E+01   -0.41992792E+01
H    -0.37443549E+01   -0.46427203E+01   -0.45223478E+01
H    -0.53382823E+01   -0.62007731E+01   -0.36253825E-01
H    -0.62924633E+01   -0.64780356E+01   -0.17165008E+01
H    -0.45553029E+01   -0.69513960E+01   -0.15963724E+01
H    -0.64685773E+01   -0.25565559E+01   -0.14677533E+01
H    -0.53911102E+01   -0.29049181E+01   -0.85407121E-01
H    -0.47212493E+01   -0.19632822E+01   -0.14409073E+01
          15
Time step:                  29 Sim. Time [au]         290.00
Sn   -0.46008954E+01   -0.43706522E+01   -0.20402709E+01
C    -0.53052672E+01   -0.62514751E+01   -0.12775850E+01
C    -0.47623208E+01   -0.44508604E+01   -0.41606690E+01
C    -0.54838776E+01   -0.25997901E+01   -0.10860310E+01
O    -0.28404893E+01   -0.42040387E+01   -0.15013144E+01
H    -0.20365364E+01   -0.46516256E+01   -0.14071575E+01
H    -0.51705986E+01   -0.35986320E+01   -0.46576003E+01
H    -0.53956306E+01   -0.53334702E+01   -0.41963627E+01
H    -0.37471571E+01   -0.46376269E+01   -0.45178637E+01
H    -0.53331448E+01   -0.61966134E+01   -0.50110274E-01
H    -0.62861473E+01   -0.64726743E+01   -0.17238646E+01
H    -0.45493247E+01   -0.69489456E+01   -0.16039001E+01
H    -0.64830374E+01   -0.25639090E+01   -0.14709247E+01
H    -0.53902820E+01   -0.29099928E+01   -0.80509334E-01
H    -0.47111004E+01   -0.19597166E+01   -0.14400425E+01
          15
Time step:                  30 Sim. Time [au]         300.00
Sn   -0.46005739E+01   -0.43712330E+01   -0.20403224E+01
C    -0.53071576E+01   -0.62514377E+01   -0.12744815E+01
C    -0.47624564E+01   -0.44513578E+01   -0.41617487E+01
C    -0.54847014E+01   -0.25963450E+01   -0.10850824E+01
O    -0.28409947E+01   -0.42032541E+01   -0.15015271E+01
H    -0.20439087E+01   -0.46526775E+01   -0.14072875E+01
H    -0.51713157E+01   -0.35855502E+01   -0.46630124E+01
H    -0.53946822E+01   -0.53334652E+01   -0.41937490E+01
H    -0.37502131E+01   -0.46325829E+01   -0.45132849E+01
H    -0.53280435E+01   -0.61927367E+01   -0.66112153E-01
H    -0.62794669E+01   -0.64672999E+01   -0.17308849E+01
H    -0.45432944E+01   -0.69465027E+01   -0.16113754E+01
H    -0.64975924E+01   -0.25710946E+01   -0.14742075E+01
H    -0.53894601E+01   -0.29151495E+01   -0.75066846E-01
H    -0.47008707E+01   -0.19557716E+01   -0.14393325E+01
          15
Time step:                  31 Sim. Time [au]         310.00
Sn   -0.46002422E+01   -0.43718315E+01   -0.20403795E+01
C    -0.53091037E+01   -0.62513790E+01   -0.12712526E+01
C    -0.47625848E+01   -0.44518076E+01   -0.41628205E+01
C    -0.54855446E+01   -0.25928417E+01   -0.10841497E+01
O    -0.28415743E+01   -0.42024076E+01   -0.15017489E+01
H    -0.20505508E+01   -0.46543073E+01   -0.14073104E+01
H    -0.51721213E+01   -0.35726731E+01   -0.46684054E+01
H    -0.53936962E+01   -0.53333891E+01   -0.41914477E+01
H    -0.37534237E+01   -0.46276508E+01   -0.45086697E+01
H    -0.53229758E+01   -0.61891815E+01   -0.84065167E-01
H    -0.62722767E+01   -0.64617490E+01   -0.17373964E+01
H    -0.45372879E+01   -0.69438354E+01   -0.16186188E+01
H    -0.65121766E+01   -0.25781621E+01   -0.14774128E+01
H    -0.53887515E+01   -0.29203702E+01   -0.68919290E-01
H    -0.46906883E+01   -0.19515390E+01   -0.14386426E+01
          15
Time step:                  32 Sim. Time [au]         320.00
Sn   -0.45999026E+01   -0.43724512E+01   -0.20404432E+01
C    -0.53111174E+01   -0.62513621E+01   -0.12679907E+01
C    -0.47627151E+01   -0.44521808E+01   -0.41638897E+01
C    -0.54863472E+01   -0.25892369E+01   -0.10833031E+01
O    -0.28422401E+01   -0.42014938E+01   -0.15019816E+01
H    -0.20563872E+01   -0.46565870E+01   -0.14072100E+01
H    -0.51728885E+01   -0.35602906E+01   -0.46736391E+01
H    -0.53926709E+01   -0.53332188E+01   -0.41894219E+01
H    -0.37566541E+01   -0.46228661E+01   -0.45041045E+01
H    -0.53179139E+01   -0.61859941E+01   -0.10366932E+00
H    -0.62641908E+01   -0.64556043E+01   -0.17429710E+01
H    -0.45313983E+01   -0.69404617E+01   -0.16252527E+01
H    -0.65270311E+01   -0.25851962E+01   -0.14802635E+01
H    -0.53884023E+01   -0.29257800E+01   -0.61577860E-01
H    -0.46807228E+01   -0.19470949E+01   -0.14377973E+01
          15
Time step:                  33 Sim. Time [au]         330.00
Sn   -0.45995529E+01   -0.43730887E+01   -0.20405125E+01
C    -0.53131421E+01   -0.62513332E+01   -0.12646585E+01
C    -0.47628641E+01   -0.44524699E+01   -0.41649507E+01