          15
Time step:                   1 Sim. Time [au]          10.00
Sn   -0.47227296E+01   -0.28543808E+01   -0.27404781E+01
C    -0.65930928E+01   -0.18486399E+01   -0.22012308E+01
C    -0.36465802E+01   -0.18222941E+01   -0.44169833E+01
C    -0.34196839E+01   -0.32844802E+01   -0.11526707E+01
O    -0.50142455E+01   -0.46425360E+01   -0.35518658E+01
H    -0.57701590E+01   -0.50272524E+01   -0.40955038E+01
H    -0.23918397E+01   -0.17002682E+01   -0.44513687E+01
H    -0.40309968E+01   -0.69939142E+00   -0.42166374E+01
H    -0.43273093E+01   -0.23422608E+01   -0.52589902E+01
H    -0.68366032E+01   -0.11315826E+01   -0.31685834E+01
H    -0.74918361E+01   -0.23875096E+01   -0.22974172E+01
H    -0.67021202E+01   -0.11896654E+01   -0.10227095E+01
H    -0.29454011E+01   -0.42275999E+01   -0.14486593E+01
H    -0.27981081E+01   -0.26859255E+01   -0.72103269E+00
H    -0.40969993E+01   -0.35658096E+01   -0.35782282E+00
          15
Time step:                   2 Sim. Time [au]          20.00
Sn   -0.47227518E+01   -0.28544001E+01   -0.27404661E+01
C    -0.65930941E+01   -0.18483171E+01   -0.22012805E+01
C    -0.36464468E+01   -0.18220046E+01   -0.44171758E+01
C    -0.34198971E+01   -0.32848697E+01   -0.11527785E+01
O    -0.50143018E+01   -0.46424575E+01   -0.35519041E+01
H    -0.57685627E+01   -0.50260236E+01   -0.40941220E+01
H    -0.23958094E+01   -0.17015747E+01   -0.44512873E+01
H    -0.40304820E+01   -0.70205465E+00   -0.42168267E+01
H    -0.43253027E+01   -0.23413959E+01   -0.52574092E+01
H    -0.68357044E+01   -0.11324763E+01   -0.31660546E+01
H    -0.74922373E+01   -0.23889061E+01   -0.22969984E+01
H    -0.67013348E+01   -0.11915278E+01   -0.10262817E+01
H    -0.29452861E+01   -0.42270022E+01   -0.14487310E+01
H    -0.27946114E+01   -0.26822727E+01   -0.71956060E+00
H    -0.40975631E+01   -0.35656598E+01   -0.35808025E+00
          15
Time step:                   3 Sim. Time [au]          30.00
Sn   -0.47227889E+01   -0.28544310E+01   -0.27404465E+01
C    -0.65930985E+01   -0.18477784E+01   -0.22013567E+01
C    -0.36462238E+01   -0.18215245E+01   -0.44174952E+01
C    -0.34202427E+01   -0.32855114E+01   -0.11529426E+01
O    -0.50143901E+01   -0.46423383E+01   -0.35519680E+01
H    -0.57659640E+01   -0.50239718E+01   -0.40918568E+01
H    -0.24023936E+01   -0.17037402E+01   -0.44511499E+01
H    -0.40296266E+01   -0.70646546E+00   -0.42171459E+01
H    -0.43219784E+01   -0.23399556E+01   -0.52547873E+01
H    -0.68342081E+01   -0.11339498E+01   -0.31618523E+01
H    -0.74928792E+01   -0.23912327E+01   -0.22963013E+01
H    -0.67000472E+01   -0.11946115E+01   -0.10322383E+01
H    -0.29450804E+01   -0.42259957E+01   -0.14488638E+01
H    -0.27889461E+01   -0.26763328E+01   -0.71723897E+00
H    -0.40984787E+01   -0.35653849E+01   -0.35854243E+00
          15
Time step:                   4 Sim. Time [au]          40.00
Sn   -0.47228410E+01   -0.28544735E+01   -0.27404193E+01
C    -0.65931090E+01   -0.18470282E+01   -0.22014581E+01
C    -0.36459127E+01   -0.18208570E+01   -0.44179405E+01
C    -0.34207026E+01   -0.32863845E+01   -0.11531506E+01
O    -0.50145062E+01   -0.46421761E+01   -0.35520544E+01
H    -0.57624319E+01   -0.50211332E+01   -0.40887583E+01
H    -0.24115354E+01   -0.17067549E+01   -0.44509546E+01
H    -0.40284427E+01   -0.71257608E+00   -0.42175851E+01
H    -0.43173599E+01   -0.23379574E+01   -0.52511478E+01
H    -0.68321262E+01   -0.11359835E+01   -0.31560063E+01
H    -0.74937229E+01   -0.23944633E+01   -0.22953273E+01
H    -0.66982574E+01   -0.11989080E+01   -0.10405633E+01
H    -0.29447753E+01   -0.42246050E+01   -0.14490581E+01
H    -0.27813400E+01   -0.26683259E+01   -0.71421665E+00
H    -0.40997414E+01   -0.35649890E+01   -0.35920313E+00
          15
Time step:                   5 Sim. Time [au]          50.00
Sn   -0.47229078E+01   -0.28545296E+01   -0.27403839E+01
C    -0.65931293E+01   -0.18460784E+01   -0.22015926E+01
C    -0.36455190E+01   -0.18200075E+01   -0.44185130E+01
C    -0.34212481E+01   -0.32874520E+01   -0.11533980E+01
O    -0.50146479E+01   -0.46419475E+01   -0.35521557E+01
H    -0.57580397E+01   -0.50176045E+01   -0.40848919E+01
H    -0.24231471E+01   -0.17106125E+01   -0.44506978E+01
H    -0.40269530E+01   -0.72030954E+00   -0.42181136E+01
H    -0.43114712E+01   -0.23354407E+01   -0.52465259E+01
H    -0.68294813E+01   -0.11385557E+01   -0.31485681E+01
H    -0.74947099E+01   -0.23985348E+01   -0.22940728E+01
H    -0.66959336E+01   -0.12044251E+01   -0.10512063E+01
H    -0.29443716E+01   -0.42229030E+01   -0.14492943E+01
H    -0.27720829E+01   -0.26585448E+01   -0.71064011E+00
H    -0.41013781E+01   -0.35645174E+01   -0.35999471E+00
          15
Time step:                   6 Sim. Time [au]          60.00
Sn   -0.47229893E+01   -0.28545991E+01   -0.27403404E+01
C    -0.65931645E+01   -0.18449377E+01   -0.22017612E+01
C    -0.36450456E+01   -0.18189820E+01   -0.44192106E+01
C    -0.34218534E+01   -0.32886839E+01   -0.11536677E+01
O    -0.50148074E+01   -0.46416478E+01   -0.35522664E+01
H    -0.57529133E+01   -0.50134535E+01   -0.40803493E+01
H    -0.24371161E+01   -0.17152958E+01   -0.44503785E+01
H    -0.40251819E+01   -0.72957395E+00   -0.42187124E+01
H    -0.43043596E+01   -0.23324413E+01   -0.52409724E+01
H    -0.68262878E+01   -0.11416306E+01   -0.31395869E+01
H    -0.74957701E+01   -0.24034017E+01   -0.22925296E+01
H    -0.66930795E+01   -0.12111391E+01   -0.10641193E+01
H    -0.29438545E+01   -0.42209287E+01   -0.14495735E+01
H    -0.27615014E+01   -0.26473065E+01   -0.70671563E+00
H    -0.41033786E+01   -0.35639738E+01   -0.36090802E+00
          15
Time step:                   7 Sim. Time [au]          70.00
Sn   -0.47230856E+01   -0.28546824E+01   -0.27402887E+01
C    -0.65932197E+01   -0.18436198E+01   -0.22019471E+01
C    -0.36444973E+01   -0.18177896E+01   -0.44200303E+01
C    -0.34224921E+01   -0.32900483E+01   -0.11539429E+01
O    -0.50149749E+01   -0.46412721E+01   -0.35523792E+01
H    -0.57472049E+01   -0.50087510E+01   -0.40752382E+01
H    -0.24532832E+01   -0.17207760E+01   -0.44499937E+01
H    -0.40231615E+01   -0.74024248E+00   -0.42193619E+01
H    -0.42960883E+01   -0.23290011E+01   -0.52345524E+01
H    -0.68226082E+01   -0.11451212E+01   -0.31291902E+01
H    -0.74968159E+01   -0.24090062E+01   -0.22907573E+01
H    -0.66896738E+01   -0.12190240E+01   -0.10793046E+01
H    -0.29432071E+01   -0.42187271E+01   -0.14498953E+01
H    -0.27499373E+01   -0.26349448E+01   -0.70265399E+00
H    -0.41057313E+01   -0.35633626E+01   -0.36193234E+00
          15
Time step:                   8 Sim. Time [au]          80.00
Sn   -0.47231968E+01   -0.28547773E+01   -0.27402295E+01
C    -0.65932999E+01   -0.18421281E+01   -0.22021477E+01
C    -0.36438730E+01   -0.18164365E+01   -0.44209648E+01
C    -0.34231447E+01   -0.32915235E+01   -0.11541935E+01
O    -0.50151345E+01   -0.46408355E+01   -0.35524887E+01
H    -0.57411223E+01   -0.50035486E+01   -0.40696982E+01
H    -0.24714657E+01   -0.17270269E+01   -0.44495530E+01
H    -0.40209332E+01   -0.75219406E+00   -0.42200535E+01
H    -0.42867549E+01   -0.23251695E+01   -0.52273559E+01
H    -0.68184408E+01   -0.11489960E+01   -0.31174221E+01
H    -0.74977946E+01   -0.24153205E+01   -0.22887229E+01
H    -0.66857710E+01   -0.12280219E+01   -0.10966697E+01
H    -0.29423932E+01   -0.42163131E+01   -0.14502825E+01
H    -0.27377283E+01   -0.26217792E+01   -0.69871097E+00
H    -0.41083808E+01   -0.35626511E+01   -0.36313095E+00
          15
Time step:                   9 Sim. Time [au]          90.00
Sn   -0.47233228E+01   -0.28548860E+01   -0.27401620E+01
C    -0.65934090E+01   -0.18404851E+01   -0.22023679E+01
C    -0.36431844E+01   -0.18149351E+01   -0.44220119E+01
C    -0.34237811E+01   -0.32930686E+01   -0.11544157E+01
O    -0.50152779E+01   -0.46403092E+01   -0.35525824E+01
H    -0.57348518E+01   -0.49980070E+01   -0.40638789E+01
H    -0.24914281E+01   -0.17340241E+01   -0.44490486E+01
H    -0.40185478E+01   -0.76524222E+00   -0.42207377E+01
H    -0.42764390E+01   -0.23210278E+01   -0.52194848E+01
H    -0.68138397E+01   -0.11531848E+01   -0.31044247E+01
H    -0.74986089E+01   -0.24222431E+01   -0.22864392E+01
H    -0.66813337E+01   -0.12381182E+01   -0.11161140E+01
H    -0.29414060E+01   -0.42137689E+01   -0.14507178E+01
H    -0.27251970E+01   -0.26081418E+01   -0.69502840E+00
H    -0.41113461E+01   -0.35618734E+01   -0.36443197E+00
          15
Time step:                  10 Sim. Time [au]         100.00
Sn   -0.47234635E+01   -0.28550085E+01   -0.27400862E+01
C    -0.65935510E+01   -0.18387091E+01   -0.22026061E+01
C    -0.36424399E+01   -0.18132978E+01   -0.44231652E+01
C    -0.34243800E+01   -0.32946547E+01   -0.11545944E+01
O    -0.50153904E+01   -0.46396852E+01   -0.35526498E+01
H    -0.57286278E+01   -0.49922474E+01   -0.40579502E+01
H    -0.25128798E+01   -0.17417325E+01   -0.44484811E+01
H    -0.40160667E+01   -0.77918264E+00   -0.42213786E+01
H    -0.42652564E+01   -0.23166587E+01   -0.52110648E+01
H    -0.68088496E+01   -0.11576008E+01   -0.30903375E+01
H    -0.74991745E+01   -0.24297035E+01   -0.22839126E+01
H    -0.66763670E+01   -0.12492511E+01   -0.11375091E+01
H    -0.29402204E+01   -0.42111460E+01   -0.14512025E+01
H    -0.27126392E+01   -0.25943294E+01   -0.69178183E+00
H    -0.41146055E+01   -0.35610306E+01   -0.36583898E+00
          15
Time step:                  11 Sim. Time [au]         110.00
Sn   -0.47236188E+01   -0.28551449E+01   -0.27400019E+01
C    -0.65937289E+01   -0.18368221E+01   -0.22028616E+01
C    -0.36416491E+01   -0.18115393E+01   -0.44244168E+01
C    -0.34249235E+01   -0.32962533E+01   -0.11547129E+01
O    -0.50154565E+01   -0.46389554E+01   -0.35526789E+01
H    -0.57227021E+01   -0.49863983E+01   -0.40520942E+01
H    -0.25354651E+01   -0.17501105E+01   -0.44478495E+01
H    -0.40135631E+01   -0.79377331E+00   -0.42219411E+01
H    -0.42533507E+01   -0.23121576E+01   -0.52022441E+01
H    -0.68035217E+01   -0.11621386E+01   -0.30753262E+01
H    -0.74994144E+01   -0.24376325E+01   -0.22811511E+01
H    -0.66708831E+01   -0.12613329E+01   -0.11606783E+01
H    -0.29388062E+01   -0.42085007E+01   -0.14517357E+01
H    -0.27003237E+01   -0.25806220E+01   -0.68914814E+00
H    -0.41181385E+01   -0.35601294E+01   -0.36738192E+00
          15
Time step:                  12 Sim. Time [au]         120.00
Sn   -0.47237901E+01   -0.28552958E+01   -0.27399102E+01
C    -0.65939456E+01   -0.18348341E+01   -0.22031105E+01
C    -0.36407917E+01   -0.18097014E+01   -0.44257491E+01
C    -0.34253603E+01   -0.32977846E+01   -0.11546979E+01
O    -0.50154522E+01   -0.46381377E+01   -0.35526566E+01
H    -0.57173404E+01   -0.49805032E+01   -0.40464688E+01
H    -0.25586454E+01   -0.17589528E+01   -0.44471285E+01
H    -0.40111647E+01   -0.80846639E+00   -0.42225230E+01
H    -0.42411126E+01   -0.23075725E+01   -0.51932200E+01
H    -0.67979823E+01   -0.11666919E+01   -0.30595621E+01
H    -0.74992953E+01   -0.24460315E+01   -0.22782758E+01
H    -0.66649187E+01   -0.12741575E+01   -0.11853411E+01
H    -0.29371962E+01   -0.42060211E+01   -0.14523051E+01
H    -0.26888076E+01   -0.25675852E+01   -0.68779610E+00
H    -0.41220368E+01   -0.35593662E+01   -0.36942436E+00
          15
Time step:                  13 Sim. Time [au]         130.00
Sn   -0.47239765E+01   -0.28554592E+01   -0.27398100E+01
C    -0.65941998E+01   -0.18327855E+01   -0.22033845E+01
C    -0.36399334E+01   -0.18077949E+01   -0.44271625E+01
C    -0.34257040E+01   -0.32992806E+01   -0.11546176E+01
O    -0.50153700E+01   -0.46371977E+01   -0.35525733E+01
H    -0.57128041E+01   -0.49747806E+01   -0.40412806E+01
H    -0.25819819E+01   -0.17683157E+01   -0.44463232E+01
H    -0.40088942E+01   -0.82315580E+00   -0.42229234E+01
H    -0.42284378E+01   -0.23030488E+01   -0.51841293E+01
H    -0.67921302E+01   -0.11711792E+01   -0.30432736E+01
H    -0.74987053E+01   -0.24547294E+01   -0.22751131E+01
H    -0.66584800E+01   -0.12878025E+01   -0.12113511E+01
H    -0.29353303E+01   -0.42036581E+01   -0.14529037E+01
H    -0.26779868E+01   -0.25550822E+01   -0.68723330E+00
H    -0.41262042E+01   -0.35585747E+01   -0.37149359E+00
          15
Time step:                  14 Sim. Time [au]         140.00
Sn   -0.47241789E+01   -0.28556334E+01   -0.27397013E+01
C    -0.65944934E+01   -0.18306769E+01   -0.22036732E+01
C    -0.36390841E+01   -0.18058536E+01   -0.44286400E+01
C    -0.34259420E+01   -0.33007252E+01   -0.11544641E+01
O    -0.50151886E+01   -0.46361504E+01   -0.35524225E+01
H    -0.57093801E+01   -0.49693082E+01   -0.40367044E+01
H    -0.26048888E+01   -0.17780964E+01   -0.44454189E+01
H    -0.40068875E+01   -0.83740577E+00   -0.42231404E+01
H    -0.42155903E+01   -0.22986690E+01   -0.51752030E+01
H    -0.67860317E+01   -0.11755727E+01   -0.30266785E+01
H    -0.74975959E+01   -0.24637049E+01   -0.22717335E+01
H    -0.66515529E+01   -0.13022132E+01   -0.12384590E+01
H    -0.29331939E+01   -0.42014632E+01   -0.14535303E+01
H    -0.26680495E+01   -0.25432805E+01   -0.68754508E+00
H    -0.41306070E+01   -0.35577572E+01   -0.37358536E+00
          15
Time step:                  15 Sim. Time [au]         150.00
Sn   -0.47243974E+01   -0.28558189E+01   -0.27395840E+01
C    -0.65948247E+01   -0.18285473E+01   -0.22039801E+01
C    -0.36382554E+01   -0.18039028E+01   -0.44301649E+01
C    -0.34260638E+01   -0.33021108E+01   -0.11542360E+01
O    -0.50148949E+01   -0.46349891E+01   -0.35521949E+01
H    -0.57072749E+01   -0.49641822E+01   -0.40328807E+01
H    -0.26267543E+01   -0.17882416E+01   -0.44444015E+01
H    -0.40053013E+01   -0.85081721E+00   -0.42231418E+01
H    -0.42028506E+01   -0.22945631E+01   -0.51667053E+01
H    -0.67798140E+01   -0.11796992E+01   -0.30100954E+01
H    -0.74959039E+01   -0.24728768E+01   -0.22682065E+01
H    -0.66441263E+01   -0.13171767E+01   -0.12662313E+01
H    -0.29307998E+01   -0.41994249E+01   -0.14541931E+01
H    -0.26591580E+01   -0.25323190E+01   -0.68876540E+00
H    -0.41352009E+01   -0.35568760E+01   -0.37569242E+00
          15
Time step:                  16 Sim. Time [au]         160.00
Sn   -0.47246314E+01   -0.28560166E+01   -0.27394589E+01
C    -0.65951859E+01   -0.18264748E+01   -0.22043317E+01
C    -0.36374715E+01   -0.18019512E+01   -0.44317213E+01
C    -0.34260665E+01   -0.33034500E+01   -0.11539248E+01
O    -0.50144785E+01   -0.46337121E+01   -0.35518831E+01
H    -0.57066337E+01   -0.49594627E+01   -0.40299072E+01
H    -0.26469184E+01   -0.17987451E+01   -0.44432793E+01
H    -0.40042654E+01   -0.86308633E+00   -0.42228594E+01
H    -0.41904267E+01   -0.22909020E+01   -0.51588690E+01
H    -0.67736071E+01   -0.11831445E+01   -0.29938948E+01
H    -0.74935417E+01   -0.24821531E+01   -0.22645201E+01
H    -0.66363210E+01   -0.13321684E+01   -0.12939074E+01
H    -0.29281738E+01   -0.41973873E+01   -0.14549278E+01
H    -0.26514337E+01   -0.25222995E+01   -0.69091930E+00
H    -0.41399142E+01   -0.35558045E+01   -0.37788598E+00
          15
Time step:                  17 Sim. Time [au]         170.00
Sn   -0.47248807E+01   -0.28562270E+01   -0.27393264E+01
C    -0.65955681E+01   -0.18245359E+01   -0.22047647E+01
C    -0.36367690E+01   -0.18000110E+01   -0.44332957E+01
C    -0.34259474E+01   -0.33047438E+01   -0.11535270E+01
O    -0.50139329E+01   -0.46323185E+01   -0.35514834E+01
H    -0.57075497E+01   -0.49551915E+01   -0.40278431E+01
H    -0.26646740E+01   -0.18095947E+01   -0.44420495E+01
H    -0.40038798E+01   -0.87390910E+00   -0.42222067E+01
H    -0.41784847E+01   -0.22878523E+01   -0.51519106E+01
H    -0.67675352E+01   -0.11855453E+01   -0.29784331E+01
H    -0.74904433E+01   -0.24914390E+01   -0.22606710E+01
H    -0.66282137E+01   -0.13466803E+01   -0.13206522E+01
H    -0.29253185E+01   -0.41952781E+01   -0.14557360E+01
H    -0.26449591E+01   -0.25133160E+01   -0.69402958E+00
H    -0.41447168E+01   -0.35544850E+01   -0.38020906E+00
          15
Time step:                  18 Sim. Time [au]         180.00
Sn   -0.47251450E+01   -0.28564499E+01   -0.27391869E+01
C    -0.65959653E+01   -0.18227972E+01   -0.22053195E+01
C    -0.36361916E+01   -0.17980752E+01   -0.44348761E+01
C    -0.34257033E+01   -0.33059624E+01   -0.11530442E+01
O    -0.50132577E+01   -0.46308079E+01   -0.35509965E+01
H    -0.57100526E+01   -0.49513925E+01   -0.40267075E+01
H    -0.26793612E+01   -0.18208535E+01   -0.44407215E+01
H    -0.40041926E+01   -0.88314190E+00   -0.42210862E+01
H    -0.41671342E+01   -0.22856092E+01   -0.51460322E+01
H    -0.67617099E+01   -0.11866356E+01   -0.29640560E+01
H    -0.74865712E+01   -0.25006498E+01   -0.22566835E+01
H    -0.66198123E+01   -0.13602732E+01   -0.13456201E+01
H    -0.29222091E+01   -0.41932576E+01   -0.14565998E+01
H    -0.26397897E+01   -0.25054593E+01   -0.69809897E+00
H    -0.41495927E+01   -0.35530102E+01   -0.38260202E+00
          15
Time step:                  19 Sim. Time [au]         190.00
Sn   -0.47254231E+01   -0.28566859E+01   -0.27390398E+01
C    -0.65963730E+01   -0.18213383E+01   -0.22060494E+01
C    -0.36357767E+01   -0.17961399E+01   -0.44364563E+01
C    -0.34253322E+01   -0.33070862E+01   -0.11524817E+01
O    -0.50124644E+01   -0.46291583E+01   -0.35504204E+01
H    -0.57140607E+01   -0.49480971E+01   -0.40264783E+01
H    -0.26903901E+01   -0.18325841E+01   -0.44392784E+01
H    -0.40052451E+01   -0.89063541E+00   -0.42194047E+01
H    -0.41565132E+01   -0.22843663E+01   -0.51414522E+01
H    -0.67562324E+01   -0.11861657E+01   -0.29511020E+01
H    -0.74819396E+01   -0.25096891E+01   -0.22525796E+01
H    -0.66110677E+01   -0.13725187E+01   -0.13679292E+01
H    -0.29188324E+01   -0.41914353E+01   -0.14574969E+01
H    -0.26359658E+01   -0.24987943E+01   -0.70310915E+00
H    -0.41545272E+01   -0.35514381E+01   -0.38501560E+00
          15
Time step:                  20 Sim. Time [au]         200.00
Sn   -0.47257148E+01   -0.28569350E+01   -0.27388853E+01
C    -0.65967865E+01   -0.18202217E+01   -0.22070047E+01
C    -0.36355458E+01   -0.17942045E+01   -0.44380259E+01
C    -0.34248337E+01   -0.33081046E+01   -0.11518413E+01
O    -0.50115610E+01   -0.46273743E+01   -0.35497611E+01
H    -0.57194591E+01   -0.49452545E+01   -0.40270762E+01
H    -0.26972913E+01   -0.18448210E+01   -0.44376979E+01
H    -0.40070887E+01   -0.89621610E+00   -0.42171168E+01
H    -0.41467758E+01   -0.22842651E+01   -0.51383632E+01
H    -0.67511886E+01   -0.11839143E+01   -0.29398734E+01
H    -0.74765410E+01   -0.25184921E+01   -0.22483798E+01
H    -0.66019753E+01   -0.13829520E+01   -0.13866426E+01
H    -0.29151905E+01   -0.41898578E+01   -0.14584194E+01
H    -0.26335286E+01   -0.24933720E+01   -0.70904554E+00
H    -0.41594823E+01   -0.35497898E+01   -0.38743536E+00
          15
Time step:                  21 Sim. Time [au]         210.00
Sn   -0.47260209E+01   -0.28571964E+01   -0.27387243E+01
C    -0.65972016E+01   -0.18194890E+01   -0.22082282E+01
C    -0.36355058E+01   -0.17922680E+01   -0.44395704E+01
C    -0.34242101E+01   -0.33090099E+01   -0.11511222E+01
O    -0.50105519E+01   -0.46254858E+01   -0.35490326E+01
H    -0.57261071E+01   -0.49427433E+01   -0.40283729E+01
H    -0.26997748E+01   -0.18575801E+01   -0.44359583E+01
H    -0.40097672E+01   -0.89973296E+00   -0.42142187E+01
H    -0.41380587E+01   -0.22853976E+01   -0.51369124E+01
H    -0.67466492E+01   -0.11797026E+01   -0.29306140E+01
H    -0.74703352E+01   -0.25270230E+01   -0.22441075E+01
H    -0.65925648E+01   -0.13911187E+01   -0.14008595E+01
H    -0.29112894E+01   -0.41885486E+01   -0.14593678E+01
H    -0.26325058E+01   -0.24892279E+01   -0.71588913E+00
H    -0.41644001E+01   -0.35480761E+01   -0.38986320E+00
          15
Time step:                  22 Sim. Time [au]         220.00
Sn   -0.47263402E+01   -0.28574708E+01   -0.27385561E+01
C    -0.65976178E+01   -0.18191972E+01   -0.22097698E+01
C    -0.36356542E+01   -0.17903296E+01   -0.44410895E+01
C    -0.34234612E+01   -0.33097995E+01   -0.11503308E+01
O    -0.50094591E+01   -0.46234772E+01   -0.35482396E+01
H    -0.57337474E+01   -0.49405098E+01   -0.40302282E+01
H    -0.26977761E+01   -0.18708831E+01   -0.44340196E+01
H    -0.40132826E+01   -0.90111999E+00   -0.42106762E+01
H    -0.41304644E+01   -0.22878556E+01   -0.51372265E+01
H    -0.67426751E+01   -0.11733984E+01   -0.29235018E+01
H    -0.74633784E+01   -0.25352082E+01   -0.22397811E+01
H    -0.65827480E+01   -0.13966990E+01   -0.14098768E+01
H    -0.29071480E+01   -0.41875136E+01   -0.14603176E+01
H    -0.26329090E+01   -0.24863804E+01   -0.72360577E+00
H    -0.41692580E+01   -0.35463055E+01   -0.39228948E+00
          15
Time step:                  23 Sim. Time [au]         230.00
Sn   -0.47266734E+01   -0.28577575E+01   -0.27383814E+01
C    -0.65980336E+01   -0.18193579E+01   -0.22116508E+01
C    -0.36359713E+01   -0.17883874E+01   -0.44425746E+01
C    -0.34225916E+01   -0.33104706E+01   -0.11494689E+01
O    -0.50082924E+01   -0.46213801E+01   -0.35473993E+01
H    -0.57421573E+01   -0.49384033E+01   -0.40324629E+01
H    -0.26914545E+01   -0.18847126E+01   -0.44318572E+01
H    -0.40176253E+01   -0.90035050E+00   -0.42065211E+01
H    -0.41240558E+01   -0.22916523E+01   -0.51393530E+01
H    -0.67393041E+01   -0.11649482E+01   -0.29186201E+01
H    -0.74556546E+01   -0.25430260E+01   -0.22354248E+01
H    -0.65725249E+01   -0.13994668E+01   -0.14132154E+01
H    -0.29027810E+01   -0.41867522E+01   -0.14612632E+01
H    -0.26347362E+01   -0.24848360E+01   -0.73215853E+00
H    -0.41739985E+01   -0.35444831E+01   -0.39471771E+00
          15
Time step:                  24 Sim. Time [au]         240.00
Sn   -0.47270194E+01   -0.28580573E+01   -0.27381996E+01
C    -0.65984504E+01   -0.18199872E+01   -0.22138852E+01
C    -0.36364293E+01   -0.17864405E+01   -0.44440310E+01
C    -0.34216027E+01   -0.33110247E+01   -0.11485439E+01
O    -0.50070763E+01   -0.46191809E+01   -0.35465184E+01
H    -0.57510357E+01   -0.49363515E+01   -0.40349097E+01
H    -0.26811823E+01   -0.18990401E+01   -0.44294391E+01
H    -0.40227408E+01   -0.89749430E+00   -0.42017603E+01
H    -0.41188517E+01   -0.22967895E+01   -0.51433010E+01
H    -0.67365603E+01   -0.11543681E+01   -0.29159672E+01
H    -0.74472458E+01   -0.25504233E+01   -0.22310582E+01
H    -0.65617993E+01   -0.13994119E+01   -0.14107657E+01
H    -0.28982189E+01   -0.41862507E+01   -0.14621761E+01
H    -0.26379706E+01   -0.24845819E+01   -0.74150007E+00
H    -0.41785965E+01   -0.35426159E+01   -0.39714242E+00
          15
Time step:                  25 Sim. Time [au]         250.00
Sn   -0.47273781E+01   -0.28583702E+01   -0.27380110E+01
C    -0.65988677E+01   -0.18210651E+01   -0.22164581E+01
C    -0.36369913E+01   -0.17844891E+01   -0.44454615E+01
C    -0.34204987E+01   -0.33114641E+01   -0.11475616E+01
O    -0.50058286E+01   -0.46168890E+01   -0.35456090E+01
H    -0.57601108E+01   -0.49342425E+01   -0.40373918E+01
H    -0.26674924E+01   -0.19137983E+01   -0.44267467E+01
H    -0.40285543E+01   -0.89267292E+00   -0.41964426E+01
H    -0.41148258E+01   -0.23032034E+01   -0.51490062E+01
H    -0.67344481E+01   -0.11417601E+01   -0.29154469E+01
H    -0.74382055E+01   -0.25573791E+01   -0.22267035E+01
H    -0.65505381E+01   -0.13966846E+01   -0.14027570E+01
H    -0.28934916E+01   -0.41859908E+01   -0.14630367E+01
H    -0.26425823E+01   -0.24855926E+01   -0.75157788E+00
H    -0.41830116E+01   -0.35407097E+01   -0.39956259E+00
          15
Time step:                  26 Sim. Time [au]         260.00
Sn   -0.47277490E+01   -0.28586961E+01   -0.27378156E+01
C    -0.65992825E+01   -0.18225505E+01   -0.22193346E+01
C    -0.36376173E+01   -0.17825344E+01   -0.44468712E+01
C    -0.34192847E+01   -0.33117928E+01   -0.11465286E+01
O    -0.50045662E+01   -0.46145133E+01   -0.35446826E+01
H    -0.57691208E+01   -0.49319714E+01   -0.40397412E+01
H    -0.26510215E+01   -0.19288908E+01   -0.44237709E+01
H    -0.40349653E+01   -0.88606442E+00   -0.41906353E+01
H    -0.41119110E+01   -0.23107853E+01   -0.51563458E+01
H    -0.67329564E+01   -0.11273019E+01   -0.29168827E+01
H    -0.74285994E+01   -0.25638842E+01   -0.22223834E+01
H    -0.65387359E+01   -0.13915922E+01   -0.13897337E+01
H    -0.28886333E+01   -0.41859476E+01   -0.14638248E+01
H    -0.26485255E+01   -0.24878261E+01   -0.76233138E+00
H    -0.41872044E+01   -0.35387698E+01   -0.40197754E+00
          15
Time step:                  27 Sim. Time [au]         270.00
Sn   -0.47281329E+01   -0.28590341E+01   -0.27376140E+01
C    -0.65996874E+01   -0.18243745E+01   -0.22224624E+01
C    -0.36382684E+01   -0.17805782E+01   -0.44482620E+01
C    -0.34179683E+01   -0.33120159E+01   -0.11454497E+01
O    -0.50032994E+01   -0.46120832E+01   -0.35437553E+01
H    -0.57778440E+01   -0.49294069E+01   -0.40417915E+01
H    -0.26324418E+01   -0.19441969E+01   -0.44205192E+01
H    -0.40418579E+01   -0.87788101E+00   -0.41844390E+01
H    -0.41100011E+01   -0.23193756E+01   -0.51651433E+01
H    -0.67320570E+01   -0.11112419E+01   -0.29200252E+01
H    -0.74184659E+01   -0.25699619E+01   -0.22181161E+01
H    -0.65264654E+01   -0.13845345E+01   -0.13724451E+01
H    -0.28836767E+01   -0.41860911E+01   -0.14645321E+01
H    -0.26557412E+01   -0.24912292E+01   -0.77369358E+00
H    -0.41911224E+01   -0.35367963E+01   -0.40439272E+00
          15
Time step:                  28 Sim. Time [au]         280.00
Sn   -0.47285296E+01   -0.28593843E+01   -0.27374057E+01
C    -0.66000734E+01   -0.18264716E+01   -0.22257879E+01
C    -0.36389282E+01   -0.17786012E+01   -0.44496224E+01
C    -0.34165659E+01   -0.33121640E+01   -0.11443250E+01
O    -0.50020416E+01   -0.46096066E+01   -0.35428358E+01
H    -0.57860524E+01   -0.49264510E+01   -0.40433958E+01
H    -0.26122602E+01   -0.19596939E+01   -0.44170935E+01
H    -0.40490794E+01   -0.86840464E+00   -0.41779600E+01
H    -0.41089218E+01   -0.23289225E+01   -0.51753490E+01
H    -0.67317171E+01   -0.10938617E+01   -0.29245784E+01
H    -0.74078804E+01   -0.25756350E+01   -0.22139193E+01
H    -0.65137887E+01   -0.13759715E+01   -0.13517941E+01
H    -0.28786601E+01   -0.41862405E+01   -0.14651621E+01
H    -0.26641485E+01   -0.24957198E+01   -0.78560870E+00
H    -0.41946638E+01   -0.35346780E+01   -0.40692763E+00
          15
Time step:                  29 Sim. Time [au]         290.00
Sn   -0.47289385E+01   -0.28597475E+01   -0.27371884E+01
C    -0.66004345E+01   -0.18287671E+01   -0.22292148E+01
C    -0.36395605E+01   -0.17765636E+01   -0.44509197E+01
C    -0.34150919E+01   -0.33122749E+01   -0.11431610E+01
O    -0.50008098E+01   -0.46070668E+01   -0.35419257E+01
H    -0.57935547E+01   -0.49230715E+01   -0.40444530E+01
H    -0.25909747E+01   -0.19754790E+01   -0.44136937E+01
H    -0.40566273E+01   -0.85797012E+00   -0.41713670E+01
H    -0.41085650E+01   -0.23394728E+01   -0.51871493E+01
H    -0.67319445E+01   -0.10755558E+01   -0.29303461E+01
H    -0.73969400E+01   -0.25809108E+01   -0.22099646E+01
H    -0.65006804E+01   -0.13665531E+01   -0.13290349E+01
H    -0.28736012E+01   -0.41861873E+01   -0.14656526E+01
H    -0.26736384E+01   -0.25012103E+01   -0.79802726E+00
H    -0.41977656E+01   -0.35323094E+01   -0.40971998E+00
          15
Time step:                  30 Sim. Time [au]         300.00
Sn   -0.47293598E+01   -0.28601222E+01   -0.27369638E+01
C    -0.66008059E+01   -0.18312341E+01   -0.22327747E+01
C    -0.36401126E+01   -0.17745048E+01   -0.44521954E+01
C    -0.34135448E+01   -0.33123194E+01   -0.11419804E+01
O    -0.49996113E+01   -0.46044908E+01   -0.35410379E+01
H    -0.58002128E+01   -0.49192038E+01   -0.40448730E+01
H    -0.25694565E+01   -0.19912384E+01   -0.44101924E+01
H    -0.40643719E+01   -0.84683517E+00   -0.41647593E+01
H    -0.41088186E+01   -0.23505877E+01   -0.51999869E+01
H    -0.67324619E+01   -0.10565375E+01   -0.29366640E+01
H    -0.73853967E+01   -0.25856812E+01   -0.22060050E+01
H    -0.64872825E+01   -0.13563659E+01   -0.13045998E+01
H    -0.28685434E+01   -0.41861712E+01   -0.14659666E+01
H    -0.26841059E+01   -0.25075733E+01   -0.81081408E+00
H    -0.42004794E+01   -0.35298926E+01   -0.41253071E+00
          15
Time step:                  31 Sim. Time [au]         310.00
Sn   -0.47297919E+01   -0.28605096E+01   -0.27367326E+01
C    -0.66011188E+01   -0.18337778E+01   -0.22363798E+01
C    -0.36405685E+01   -0.17724667E+01   -0.44535025E+01
C    -0.34119316E+01   -0.33122968E+01   -0.11407984E+01
O    -0.49984622E+01   -0.46018635E+01   -0.35401749E+01
H    -0.58058502E+01   -0.49148314E+01   -0.40445835E+01
H    -0.25483558E+01   -0.20066706E+01   -0.44064683E+01
H    -0.40720760E+01   -0.83523615E+00   -0.41581583E+01
H    -0.41095127E+01   -0.23618764E+01   -0.52133083E+01
H    -0.67334555E+01   -0.10372039E+01   -0.29435124E+01
H    -0.73738236E+01   -0.25901487E+01   -0.22021959E+01
H    -0.64736966E+01   -0.13460456E+01   -0.12794464E+01
H    -0.28635461E+01   -0.41862566E+01   -0.14660908E+01
H    -0.26953992E+01   -0.25146348E+01   -0.82384639E+00
H    -0.42028208E+01   -0.35275080E+01   -0.41526204E+00
          15
Time step:                  32 Sim. Time [au]         320.00
Sn   -0.47302346E+01   -0.28609096E+01   -0.27364949E+01
C    -0.66013555E+01   -0.18363361E+01   -0.22400011E+01
C    -0.36409169E+01   -0.17704556E+01   -0.44548518E+01
C    -0.34102620E+01   -0.33122243E+01   -0.11396263E+01
O    -0.49973699E+01   -0.45991896E+01   -0.35393415E+01
H    -0.58103613E+01   -0.49099266E+01   -0.40435267E+01
H    -0.25281095E+01   -0.20216466E+01   -0.44025462E+01
H    -0.40795954E+01   -0.82343965E+00   -0.41516686E+01
H    -0.41104884E+01   -0.23731150E+01   -0.52268451E+01
H    -0.67348812E+01   -0.10178826E+01   -0.29506008E+01
H    -0.73623662E+01   -0.25943870E+01   -0.21985154E+01
H    -0.64600504E+01   -0.13359181E+01   -0.12542061E+01
H    -0.28586748E+01   -0.41863992E+01   -0.14660095E+01
H    -0.27073674E+01   -0.25222069E+01   -0.83701632E+00
H    -0.42047736E+01   -0.35251630E+01   -0.41789790E+00
          15
Time step:                  33 Sim. Time [au]         330.00
Sn   -0.47306883E+01   -0.28613212E+01   -0.27362516E+01
C    -0.66014974E+01   -0.18388378E+01   -0.22436075E+01
C    -0.36411464E+01   -0.17684760E+01   -0.44562466E+01