          15
Time step:                   1 Sim. Time [au]          10.00
Sn   -0.33183083E+01    0.11924353E+01    0.18604976E+01
C    -0.52493428E+01    0.42460623E+00    0.17639981E+01
C    -0.25392152E+01    0.22212549E+01    0.15893276E+00
C    -0.31958270E+01    0.24368372E+01    0.37173967E+01
O    -0.22866417E+01   -0.37822704E+00    0.23778983E+01
H    -0.14001225E+01   -0.65803730E+00    0.20741656E+01
H    -0.14054337E+01    0.25494778E+01    0.35557320E+00
H    -0.33814256E+01    0.27927211E+01   -0.73843134E-02
H    -0.23836186E+01    0.14344103E+01   -0.75248257E+00
H    -0.56285929E+01   -0.14804118E+00    0.85508570E+00
H    -0.54285297E+01   -0.18671812E+00    0.24451725E+01
H    -0.58922961E+01    0.11028688E+01    0.20664816E+01
H    -0.25594043E+01    0.19622342E+01    0.44107215E+01
H    -0.29173716E+01    0.34880683E+01    0.37197112E+01
H    -0.43047652E+01    0.25537756E+01    0.40994958E+01
          15
Time step:                   2 Sim. Time [au]          20.00
Sn   -0.33183027E+01    0.11924071E+01    0.18604916E+01
C    -0.52491862E+01    0.42469419E+00    0.17634539E+01
C    -0.25388313E+01    0.22210220E+01    0.15881985E+00
C    -0.31960602E+01    0.24370928E+01    0.37176016E+01
O    -0.22866152E+01   -0.37818164E+00    0.23778660E+01
H    -0.14010989E+01   -0.65750097E+00    0.20745821E+01
H    -0.14084911E+01    0.25497490E+01    0.35521928E+00
H    -0.33820991E+01    0.27947662E+01   -0.81307167E-02
H    -0.23844582E+01    0.14359006E+01   -0.75006330E+00
H    -0.56274821E+01   -0.14661960E+00    0.85589539E+00
H    -0.54288825E+01   -0.19194515E+00    0.24508438E+01
H    -0.58951993E+01    0.11062414E+01    0.20669055E+01
H    -0.25587857E+01    0.19610521E+01    0.44109510E+01
H    -0.29168213E+01    0.34877924E+01    0.37186038E+01
H    -0.43029798E+01    0.25526008E+01    0.40983366E+01
          15
Time step:                   3 Sim. Time [au]          30.00
Sn   -0.33182929E+01    0.11923603E+01    0.18604817E+01
C    -0.52489411E+01    0.42483116E+00    0.17625749E+01
C    -0.25382036E+01    0.22206429E+01    0.15863115E+00
C    -0.31964467E+01    0.24375167E+01    0.37179409E+01
O    -0.22865721E+01   -0.37811208E+00    0.23778163E+01
H    -0.14026855E+01   -0.65661276E+00    0.20752573E+01
H    -0.14135558E+01    0.25501989E+01    0.35464278E+00
H    -0.33831653E+01    0.27981438E+01   -0.93807892E-02
H    -0.23858551E+01    0.14383612E+01   -0.74604058E+00
H    -0.56256354E+01   -0.14426121E+00    0.85722542E+00
H    -0.54293913E+01   -0.20036176E+00    0.24600043E+01
H    -0.58999338E+01    0.11117175E+01    0.20675783E+01
H    -0.25577812E+01    0.19591013E+01    0.44113007E+01
H    -0.29159045E+01    0.34873384E+01    0.37167674E+01
H    -0.43000262E+01    0.25506522E+01    0.40964237E+01
          15
Time step:                   4 Sim. Time [au]          40.00
Sn   -0.33182787E+01    0.11922949E+01    0.18604677E+01
C    -0.52486269E+01    0.42500106E+00    0.17614059E+01
C    -0.25373441E+01    0.22201243E+01    0.15836780E+00
C    -0.31969805E+01    0.24381051E+01    0.37184167E+01
O    -0.22865155E+01   -0.37801727E+00    0.23777505E+01
H    -0.14048352E+01   -0.65538765E+00    0.20761749E+01
H    -0.14205702E+01    0.25508380E+01    0.35385240E+00
H    -0.33845466E+01    0.28027904E+01   -0.11113831E-01
H    -0.23878000E+01    0.14417595E+01   -0.74045470E+00
H    -0.56230774E+01   -0.14099184E+00    0.85903059E+00
H    -0.54299616E+01   -0.21157133E+00    0.24722338E+01
H    -0.59063451E+01    0.11191143E+01    0.20684353E+01
H    -0.25564222E+01    0.19564096E+01    0.44117327E+01
H    -0.29146245E+01    0.34867157E+01    0.37142053E+01
H    -0.42959447E+01    0.25479421E+01    0.40937714E+01
          15
Time step:                   5 Sim. Time [au]          50.00
Sn   -0.33182616E+01    0.11922106E+01    0.18604494E+01
C    -0.52482633E+01    0.42518045E+00    0.17600157E+01
C    -0.25362576E+01    0.22194628E+01    0.15803525E+00
C    -0.31976477E+01    0.24388506E+01    0.37190426E+01
O    -0.22864527E+01   -0.37787546E+00    0.23776589E+01
H    -0.14075070E+01   -0.65386042E+00    0.20773358E+01
H    -0.14294315E+01    0.25517068E+01    0.35283659E+00
H    -0.33861477E+01    0.28085859E+01   -0.13244040E-01
H    -0.23902671E+01    0.14460557E+01   -0.73340967E+00
H    -0.56198755E+01   -0.13687691E+00    0.86122177E+00
H    -0.54305007E+01   -0.22511425E+00    0.24869635E+01
H    -0.59142050E+01    0.11282354E+01    0.20693495E+01
H    -0.25547335E+01    0.19530100E+01    0.44122192E+01
H    -0.29129890E+01    0.34859387E+01    0.37109005E+01
H    -0.42908056E+01    0.25444833E+01    0.40903720E+01
          15
Time step:                   6 Sim. Time [au]          60.00
Sn   -0.33182416E+01    0.11921073E+01    0.18604267E+01
C    -0.52478774E+01    0.42535390E+00    0.17584677E+01
C    -0.25349651E+01    0.22186700E+01    0.15763627E+00
C    -0.31984373E+01    0.24397472E+01    0.37198216E+01
O    -0.22863891E+01   -0.37768488E+00    0.23775435E+01
H    -0.14106175E+01   -0.65205695E+00    0.20787114E+01
H    -0.14400308E+01    0.25528256E+01    0.35161128E+00
H    -0.33878473E+01    0.28154284E+01   -0.15739391E-01
H    -0.23932383E+01    0.14511882E+01   -0.72498108E+00
H    -0.56160768E+01   -0.13197711E+00    0.86372110E+00
H    -0.54308888E+01   -0.24047509E+00    0.25036226E+01
H    -0.59232704E+01    0.11388049E+01    0.20702174E+01
H    -0.25527661E+01    0.19489459E+01    0.44126996E+01
H    -0.29110049E+01    0.34850210E+01    0.37068593E+01
H    -0.42846852E+01    0.25402984E+01    0.40862542E+01
          15
Time step:                   7 Sim. Time [au]          70.00
Sn   -0.33182169E+01    0.11919855E+01    0.18603995E+01
C    -0.52474996E+01    0.42551338E+00    0.17568164E+01
C    -0.25335016E+01    0.22177719E+01    0.15717090E+00
C    -0.31993414E+01    0.24407888E+01    0.37207454E+01
O    -0.22863281E+01   -0.37746339E+00    0.23774169E+01
H    -0.14140458E+01   -0.64999353E+00    0.20802447E+01
H    -0.14522516E+01    0.25541965E+01    0.35022275E+00
H    -0.33895046E+01    0.28232346E+01   -0.18619540E-01
H    -0.23967050E+01    0.14570694E+01   -0.71522309E+00
H    -0.56117112E+01   -0.12634254E+00    0.86645283E+00
H    -0.54309931E+01   -0.25711218E+00    0.25216767E+01
H    -0.59333103E+01    0.11504925E+01    0.20709674E+01
H    -0.25505936E+01    0.19442709E+01    0.44130860E+01
H    -0.29086787E+01    0.34839742E+01    0.37021109E+01
H    -0.42776678E+01    0.25354200E+01    0.40814834E+01
          15
Time step:                   8 Sim. Time [au]          80.00
Sn   -0.33181890E+01    0.11918449E+01    0.18603674E+01
C    -0.52471543E+01    0.42564692E+00    0.17551345E+01
C    -0.25318850E+01    0.22167716E+01    0.15664845E+00
C    -0.32003395E+01    0.24419662E+01    0.37218265E+01
O    -0.22862801E+01   -0.37718873E+00    0.23772714E+01
H    -0.14176998E+01   -0.64771997E+00    0.20819195E+01
H    -0.14659043E+01    0.25558767E+01    0.34867032E+00
H    -0.33909869E+01    0.28318454E+01   -0.21791223E-01
H    -0.24006256E+01    0.14636106E+01   -0.70429741E+00
H    -0.56068554E+01   -0.12008177E+00    0.86930430E+00
H    -0.54307387E+01   -0.27456748E+00    0.25405456E+01
H    -0.59440171E+01    0.11630200E+01    0.20714616E+01
H    -0.25482601E+01    0.19390355E+01    0.44133330E+01
H    -0.29060199E+01    0.34828196E+01    0.36966458E+01
H    -0.42698873E+01    0.25298733E+01    0.40760789E+01
          15
Time step:                   9 Sim. Time [au]          90.00
Sn   -0.33181577E+01    0.11916854E+01    0.18603302E+01
C    -0.52468660E+01    0.42575066E+00    0.17534805E+01
C    -0.25301466E+01    0.22156856E+01    0.15607574E+00
C    -0.32014139E+01    0.24432702E+01    0.37230658E+01
O    -0.22862533E+01   -0.37685833E+00    0.23771098E+01
H    -0.14214546E+01   -0.64527495E+00    0.20836931E+01
H    -0.14807889E+01    0.25579080E+01    0.34698553E+00
H    -0.33921540E+01    0.28411284E+01   -0.25214771E-01
H    -0.24049696E+01    0.14706953E+01   -0.69234682E+00
H    -0.56015658E+01   -0.11328716E+00    0.87216619E+00
H    -0.54300488E+01   -0.29239934E+00    0.25597385E+01
H    -0.59551221E+01    0.11760828E+01    0.20716057E+01
H    -0.25458281E+01    0.19332993E+01    0.44133732E+01
H    -0.29030372E+01    0.34815778E+01    0.36904790E+01
H    -0.42614906E+01    0.25236941E+01    0.40700978E+01
          15
Time step:                  10 Sim. Time [au]         100.00
Sn   -0.33181214E+01    0.11915074E+01    0.18602879E+01
C    -0.52466577E+01    0.42582891E+00    0.17518988E+01
C    -0.25283299E+01    0.22145442E+01    0.15545786E+00
C    -0.32025510E+01    0.24446935E+01    0.37244526E+01
O    -0.22862531E+01   -0.37648879E+00    0.23769457E+01
H    -0.14251550E+01   -0.64268576E+00    0.20854952E+01
H    -0.14966962E+01    0.25603215E+01    0.34523253E+00
H    -0.33928621E+01    0.28509803E+01   -0.28904383E-01
H    -0.24097191E+01    0.14781692E+01   -0.67950492E+00
H    -0.55958832E+01   -0.10604283E+00    0.87492828E+00
H    -0.54288539E+01   -0.31019704E+00    0.25788562E+01
H    -0.59664078E+01    0.11893667E+01    0.20713553E+01
H    -0.25433756E+01    0.19271309E+01    0.44131238E+01
H    -0.28997316E+01    0.34802582E+01    0.36836447E+01
H    -0.42526303E+01    0.25169179E+01    0.40636322E+01
          15
Time step:                  11 Sim. Time [au]         110.00
Sn   -0.33180813E+01    0.11913106E+01    0.18602397E+01
C    -0.52465447E+01    0.42588157E+00    0.17504440E+01
C    -0.25264624E+01    0.22133537E+01    0.15480847E+00
C    -0.32037247E+01    0.24462265E+01    0.37259970E+01
O    -0.22862918E+01   -0.37605798E+00    0.23767720E+01
H    -0.14286820E+01   -0.64001201E+00    0.20873035E+01
H    -0.15133376E+01    0.25632030E+01    0.34342829E+00
H    -0.33929888E+01    0.28612377E+01   -0.32764770E-01
H    -0.24148190E+01    0.14858828E+01   -0.66599965E+00
H    -0.55898832E+01   -0.98476044E-01    0.87745823E+00
H    -0.54271434E+01   -0.32765446E+00    0.25975068E+01
H    -0.59776082E+01    0.12026287E+01    0.20706181E+01
H    -0.25409487E+01    0.19205881E+01    0.44125387E+01
H    -0.28961144E+01    0.34788790E+01    0.36761406E+01
H    -0.42435112E+01    0.25095767E+01    0.40567269E+01
          15
Time step:                  12 Sim. Time [au]         120.00
Sn   -0.33180359E+01    0.11910954E+01    0.18601856E+01
C    -0.52465435E+01    0.42591830E+00    0.17491509E+01
C    -0.25245919E+01    0.22121465E+01    0.15413867E+00
C    -0.32049168E+01    0.24478605E+01    0.37276863E+01
O    -0.22863749E+01   -0.37558211E+00    0.23766023E+01
H    -0.14318815E+01   -0.63727771E+00    0.20890452E+01
H    -0.15304345E+01    0.25666058E+01    0.34164671E+00
H    -0.33924143E+01    0.28717984E+01   -0.36817138E-01
H    -0.24202434E+01    0.14936259E+01   -0.65203615E+00
H    -0.55836115E+01   -0.90675509E-01    0.87963013E+00
H    -0.54248750E+01   -0.34446425E+00    0.26154041E+01
H    -0.59885496E+01    0.12156016E+01    0.20693692E+01
H    -0.25386214E+01    0.19137450E+01    0.44115452E+01
H    -0.28921892E+01    0.34774522E+01    0.36680062E+01
H    -0.42343395E+01    0.25017122E+01    0.40494908E+01
          15
Time step:                  13 Sim. Time [au]         130.00
Sn   -0.33179851E+01    0.11908618E+01    0.18601251E+01
C    -0.52466649E+01    0.42594701E+00    0.17480560E+01
C    -0.25227588E+01    0.22109429E+01    0.15346444E+00
C    -0.32061028E+01    0.24495870E+01    0.37295176E+01
O    -0.22865108E+01   -0.37505840E+00    0.23764400E+01
H    -0.14346252E+01   -0.63452155E+00    0.20906754E+01
H    -0.15476552E+01    0.25706174E+01    0.33994027E+00
H    -0.33910370E+01    0.28825365E+01   -0.41028015E-01
H    -0.24259457E+01    0.15011794E+01   -0.63787592E+00
H    -0.55771292E+01   -0.82751515E-01    0.88130903E+00
H    -0.54220434E+01   -0.36039256E+00    0.26322910E+01
H    -0.59990489E+01    0.12280698E+01    0.20675701E+01
H    -0.25364480E+01    0.19066667E+01    0.44100920E+01
H    -0.28879655E+01    0.34759868E+01    0.36592635E+01
H    -0.42253528E+01    0.24933609E+01    0.40420103E+01
          15
Time step:                  14 Sim. Time [au]         140.00
Sn   -0.33179297E+01    0.11906093E+01    0.18600575E+01
C    -0.52469125E+01    0.42597327E+00    0.17471968E+01
C    -0.25209994E+01    0.22097508E+01    0.15280470E+00
C    -0.32072532E+01    0.24514005E+01    0.37314959E+01
O    -0.22867101E+01   -0.37446609E+00    0.23762775E+01
H    -0.14368227E+01   -0.63178873E+00    0.20921794E+01
H    -0.15646150E+01    0.25753575E+01    0.33833673E+00
H    -0.33887605E+01    0.28933003E+01   -0.45297945E-01
H    -0.24318485E+01    0.15083256E+01   -0.62381882E+00
H    -0.55705178E+01   -0.74834199E-01    0.88234936E+00
H    -0.54186886E+01   -0.37528165E+00    0.26479503E+01
H    -0.60089253E+01    0.12398694E+01    0.20651749E+01
H    -0.25344605E+01    0.18993947E+01    0.44081597E+01
H    -0.28834625E+01    0.34744793E+01    0.36499155E+01
H    -0.42168157E+01    0.24845490E+01    0.40343596E+01
          15
Time step:                  15 Sim. Time [au]         150.00
Sn   -0.33178694E+01    0.11903384E+01    0.18599815E+01
C    -0.52472878E+01    0.42600625E+00    0.17466057E+01
C    -0.25193559E+01    0.22085783E+01    0.15216335E+00
C    -0.32083371E+01    0.24533042E+01    0.37336028E+01
O    -0.22869797E+01   -0.37380275E+00    0.23761178E+01
H    -0.14383813E+01   -0.62910200E+00    0.20935202E+01
H    -0.15809656E+01    0.25809612E+01    0.33692173E+00
H    -0.33854763E+01    0.29039781E+01   -0.49526446E-01
H    -0.24379009E+01    0.15148814E+01   -0.61004571E+00
H    -0.55638533E+01   -0.67033945E-01    0.88260000E+00
H    -0.54148388E+01   -0.38899885E+00    0.26622157E+01
H    -0.60180583E+01    0.12508495E+01    0.20621555E+01
H    -0.25326926E+01    0.18919233E+01    0.44058262E+01
H    -0.28787008E+01    0.34729059E+01    0.36399772E+01
H    -0.42090628E+01    0.24752721E+01    0.40267256E+01
          15
Time step:                  16 Sim. Time [au]         160.00
Sn   -0.33178031E+01    0.11900500E+01    0.18598961E+01
C    -0.52477992E+01    0.42605671E+00    0.17463017E+01
C    -0.25178845E+01    0.22074536E+01    0.15154804E+00
C    -0.32093109E+01    0.24552934E+01    0.37358139E+01
O    -0.22873220E+01   -0.37308397E+00    0.23759734E+01
H    -0.14392077E+01   -0.62646750E+00    0.20946430E+01
H    -0.15963435E+01    0.25875300E+01    0.33578102E+00
H    -0.33810748E+01    0.29144739E+01   -0.53669316E-01
H    -0.24440283E+01    0.15205905E+01   -0.59677189E+00
H    -0.55571520E+01   -0.59413437E-01    0.88195731E+00
H    -0.54104912E+01   -0.40139261E+00    0.26749607E+01
H    -0.60263500E+01    0.12608488E+01    0.20585235E+01
H    -0.25312513E+01    0.18842722E+01    0.44031012E+01
H    -0.28737602E+01    0.34712752E+01    0.36294844E+01
H    -0.42024925E+01    0.24655752E+01    0.40193187E+01
          15
Time step:                  17 Sim. Time [au]         170.00
Sn   -0.33177314E+01    0.11897430E+01    0.18598011E+01
C    -0.52484493E+01    0.42613063E+00    0.17463021E+01
C    -0.25166182E+01    0.22064001E+01    0.15100024E+00
C    -0.32101445E+01    0.24573506E+01    0.37381466E+01
O    -0.22877423E+01   -0.37229219E+00    0.23758361E+01
H    -0.14392785E+01   -0.62390978E+00    0.20955584E+01
H    -0.16103518E+01    0.25951454E+01    0.33490868E+00
H    -0.33755486E+01    0.29246405E+01   -0.57715050E-01
H    -0.24501429E+01    0.15251244E+01   -0.58447444E+00
H    -0.55504443E+01   -0.52058245E-01    0.88033841E+00
H    -0.54056922E+01   -0.41237223E+00    0.26860760E+01
H    -0.60336681E+01    0.12697563E+01    0.20542818E+01
H    -0.25301905E+01    0.18765386E+01    0.43998659E+01
H    -0.28686868E+01    0.34696322E+01    0.36184529E+01
H    -0.41973301E+01    0.24555368E+01    0.40121320E+01
          15
Time step:                  18 Sim. Time [au]         180.00
Sn   -0.33176533E+01    0.11894183E+01    0.18596966E+01
C    -0.52492398E+01    0.42623834E+00    0.17466175E+01
C    -0.25155979E+01    0.22054542E+01    0.15054194E+00
C    -0.32108226E+01    0.24594665E+01    0.37405890E+01
O    -0.22882387E+01   -0.37144420E+00    0.23757157E+01
H    -0.14385591E+01   -0.62141981E+00    0.20962372E+01
H    -0.16226797E+01    0.26038637E+01    0.33437146E+00
H    -0.33688799E+01    0.29344001E+01   -0.61694742E-01
H    -0.24562012E+01    0.15281704E+01   -0.57347751E+00
H    -0.55437671E+01   -0.45029822E-01    0.87766314E+00
H    -0.54004412E+01   -0.42183795E+00    0.26954708E+01
H    -0.60399696E+01    0.12774643E+01    0.20494447E+01
H    -0.25295506E+01    0.18688041E+01    0.43960586E+01
H    -0.28634985E+01    0.34679802E+01    0.36069393E+01
H    -0.41937592E+01    0.24452001E+01    0.40052364E+01
          15
Time step:                  19 Sim. Time [au]         190.00
Sn   -0.33175687E+01    0.11890757E+01    0.18595825E+01
C    -0.52501701E+01    0.42638590E+00    0.17472568E+01
C    -0.25148448E+01    0.22046370E+01    0.15019939E+00
C    -0.32113345E+01    0.24616336E+01    0.37431408E+01
O    -0.22888099E+01   -0.37054051E+00    0.23756116E+01
H    -0.14370675E+01   -0.61899180E+00    0.20966852E+01
H    -0.16330708E+01    0.26137517E+01    0.33420668E+00
H    -0.33611040E+01    0.29436875E+01   -0.65629330E-01
H    -0.24621789E+01    0.15294639E+01   -0.56411267E+00
H    -0.55371532E+01   -0.38385464E-01    0.87387893E+00
H    -0.53947685E+01   -0.42972824E+00    0.27030723E+01
H    -0.60452018E+01    0.12838971E+01    0.20440243E+01
H    -0.25293450E+01    0.18611466E+01    0.43916337E+01
H    -0.28582035E+01    0.34663102E+01    0.35949838E+01
H    -0.41918953E+01    0.24345943E+01    0.39986465E+01
          15
Time step:                  20 Sim. Time [au]         200.00
Sn   -0.33174784E+01    0.11887149E+01    0.18594588E+01
C    -0.52512363E+01    0.42657512E+00    0.17482276E+01
C    -0.25143652E+01    0.22039555E+01    0.14999606E+00
C    -0.32116697E+01    0.24638444E+01    0.37458106E+01
O    -0.22894555E+01   -0.36956543E+00    0.23755143E+01
H    -0.14348737E+01   -0.61662444E+00    0.20969412E+01
H    -0.16413306E+01    0.26248664E+01    0.33441259E+00
H    -0.33522736E+01    0.29524252E+01   -0.69488345E-01
H    -0.24680399E+01    0.15288169E+01   -0.55666203E+00
H    -0.55306357E+01   -0.32176171E-01    0.86895243E+00
H    -0.53887350E+01   -0.43602207E+00    0.27088290E+01
H    -0.60493070E+01    0.12890078E+01    0.20380281E+01
H    -0.25295701E+01    0.18536338E+01    0.43865758E+01
H    -0.28528146E+01    0.34646184E+01    0.35826122E+01
H    -0.41918147E+01    0.24237475E+01    0.39923423E+01
          15
Time step:                  21 Sim. Time [au]         210.00
Sn   -0.33173823E+01    0.11883357E+01    0.18593255E+01
C    -0.52524378E+01    0.42680743E+00    0.17495290E+01
C    -0.25141649E+01    0.22034223E+01    0.14994629E+00
C    -0.32118247E+01    0.24660941E+01    0.37485947E+01
O    -0.22901704E+01   -0.36852045E+00    0.23754223E+01
H    -0.14320545E+01   -0.61429572E+00    0.20970291E+01
H    -0.16473582E+01    0.26372163E+01    0.33499847E+00
H    -0.33424433E+01    0.29605753E+01   -0.73280067E-01
H    -0.24737655E+01    0.15260918E+01   -0.55129723E+00
H    -0.55242162E+01   -0.26415708E-01    0.86290238E+00
H    -0.53823753E+01   -0.44068123E+00    0.27126986E+01
H    -0.60522580E+01    0.12927493E+01    0.20314812E+01
H    -0.25302250E+01    0.18463200E+01    0.43808844E+01
H    -0.28473517E+01    0.34628888E+01    0.35698713E+01
H    -0.41935432E+01    0.24126881E+01    0.39863296E+01
          15
Time step:                  22 Sim. Time [au]         220.00
Sn   -0.33172803E+01    0.11879384E+01    0.18591824E+01
C    -0.52537744E+01    0.42708190E+00    0.17511558E+01
C    -0.25142412E+01    0.22030464E+01    0.15005852E+00
C    -0.32118010E+01    0.24683781E+01    0.37514895E+01
O    -0.22909482E+01   -0.36740742E+00    0.23753339E+01
H    -0.14287097E+01   -0.61197747E+00    0.20969796E+01
H    -0.16511404E+01    0.26507654E+01    0.33595363E+00
H    -0.33316785E+01    0.29681099E+01   -0.77011640E-01
H    -0.24793380E+01    0.15212324E+01   -0.54809934E+00
H    -0.55178807E+01   -0.21096399E-01    0.85578686E+00
H    -0.53757248E+01   -0.44367504E+00    0.27146494E+01
H    -0.60540404E+01    0.12950884E+01    0.20244151E+01
H    -0.25313008E+01    0.18392497E+01    0.43745741E+01
H    -0.28418396E+01    0.34611067E+01    0.35568103E+01
H    -0.41970501E+01    0.24014498E+01    0.39806030E+01
          15
Time step:                  23 Sim. Time [au]         230.00
Sn   -0.33171725E+01    0.11875231E+01    0.18590293E+01
C    -0.52552454E+01    0.42739550E+00    0.17530982E+01
C    -0.25145831E+01    0.22028321E+01    0.15033515E+00
C    -0.32116055E+01    0.24706917E+01    0.37544909E+01
O    -0.22917810E+01   -0.36622850E+00    0.23752472E+01
H    -0.14249582E+01   -0.60963680E+00    0.20968290E+01
H    -0.16527500E+01    0.26654292E+01    0.33724730E+00
H    -0.33200559E+01    0.29750106E+01   -0.80690398E-01
H    -0.24847413E+01    0.15142713E+01   -0.54705664E+00
H    -0.55116036E+01   -0.16192061E-01    0.84770075E+00
H    -0.53688207E+01   -0.44498151E+00    0.27146601E+01
H    -0.60546523E+01    0.12960060E+01    0.20168664E+01
H    -0.25327787E+01    0.18324592E+01    0.43676719E+01
H    -0.28363054E+01    0.34592591E+01    0.35434808E+01
H    -0.42022431E+01    0.23900745E+01    0.39751452E+01
          15
Time step:                  24 Sim. Time [au]         240.00
Sn   -0.33170589E+01    0.11870900E+01    0.18588662E+01
C    -0.52568500E+01    0.42774330E+00    0.17553419E+01
C    -0.25151717E+01    0.22027794E+01    0.15077304E+00
C    -0.32112516E+01    0.24730295E+01    0.37575950E+01
O    -0.22926604E+01   -0.36498607E+00    0.23751599E+01
H    -0.14209321E+01   -0.60723767E+00    0.20966178E+01
H    -0.16523362E+01    0.26810788E+01    0.33883170E+00
H    -0.33076646E+01    0.29812717E+01   -0.84327460E-01
H    -0.24899614E+01    0.15053274E+01   -0.54807025E+00
H    -0.55053478E+01   -0.11660307E-01    0.83877529E+00
H    -0.53617013E+01   -0.44458737E+00    0.27127212E+01
H    -0.60541025E+01    0.12954972E+01    0.20088779E+01
H    -0.25346270E+01    0.18259766E+01    0.43602148E+01
H    -0.28307754E+01    0.34573357E+01    0.35299370E+01
H    -0.42089683E+01    0.23786149E+01    0.39699269E+01
          15
Time step:                  25 Sim. Time [au]         250.00
Sn   -0.33169389E+01    0.11866400E+01    0.18586927E+01
C    -0.52585930E+01    0.42811826E+00    0.17578641E+01
C    -0.25159876E+01    0.22028902E+01    0.15136283E+00
C    -0.32107645E+01    0.24753899E+01    0.37607873E+01
O    -0.22935742E+01   -0.36369904E+00    0.23750781E+01
H    -0.14167554E+01   -0.60472533E+00    0.20963680E+01
H    -0.16501172E+01    0.26975409E+01    0.34066704E+00
H    -0.32946022E+01    0.29869291E+01   -0.87983067E-01
H    -0.24950019E+01    0.14945884E+01   -0.55094597E+00
H    -0.54990264E+01   -0.74180036E-02    0.82920179E+00
H    -0.53543883E+01   -0.44245157E+00    0.27088321E+01
H    -0.60524061E+01    0.12935476E+01    0.20005204E+01
H    -0.25367798E+01    0.18198022E+01    0.43522690E+01
H    -0.28252555E+01    0.34553283E+01    0.35162575E+01
H    -0.42170196E+01    0.23671229E+01    0.39649413E+01
          15
Time step:                  26 Sim. Time [au]         260.00
Sn   -0.33168137E+01    0.11861726E+01    0.18585084E+01
C    -0.52604697E+01    0.42851158E+00    0.17606424E+01
C    -0.25169965E+01    0.22031530E+01    0.15209306E+00
C    -0.32101741E+01    0.24777671E+01    0.37640658E+01
O    -0.22945158E+01   -0.36235331E+00    0.23749909E+01
H    -0.14125854E+01   -0.60207936E+00    0.20961435E+01
H    -0.16463368E+01    0.27146050E+01    0.34265444E+00
H    -0.32809725E+01    0.29919461E+01   -0.91612105E-01
H    -0.24998237E+01    0.14823213E+01   -0.55546007E+00
H    -0.54925974E+01   -0.34126108E-02    0.81917854E+00
H    -0.53469427E+01   -0.43860889E+00    0.27030192E+01
H    -0.60495734E+01    0.12901964E+01    0.19918418E+01
H    -0.25391265E+01    0.18139298E+01    0.43439418E+01
H    -0.28197257E+01    0.34532470E+01    0.35024904E+01
H    -0.42261240E+01    0.23556591E+01    0.39601369E+01
          15
Time step:                  27 Sim. Time [au]         270.00
Sn   -0.33166830E+01    0.11856891E+01    0.18583129E+01
C    -0.52624842E+01    0.42891220E+00    0.17636414E+01
C    -0.25181701E+01    0.22035643E+01    0.15294872E+00
C    -0.32095226E+01    0.24801669E+01    0.37674079E+01
O    -0.22954734E+01   -0.36096738E+00    0.23749039E+01
H    -0.14085529E+01   -0.59924272E+00    0.20959665E+01
H    -0.16412836E+01    0.27320300E+01    0.34472768E+00
H    -0.32668968E+01    0.29963635E+01   -0.95265439E-01
H    -0.25044210E+01    0.14688246E+01   -0.56131978E+00
H    -0.54859448E+01    0.46463225E-03    0.80898014E+00
H    -0.53393971E+01   -0.43304506E+00    0.26953271E+01
H    -0.60456167E+01    0.12854575E+01    0.19829385E+01
H    -0.25415236E+01    0.18082924E+01    0.43353858E+01
H    -0.28141417E+01    0.34510822E+01    0.34887194E+01
H    -0.42359936E+01    0.23442558E+01    0.39555310E+01
          15
Time step:                  28 Sim. Time [au]         280.00
Sn   -0.33165475E+01    0.11851897E+01    0.18581055E+01
C    -0.52646354E+01    0.42930871E+00    0.17668236E+01
C    -0.25194734E+01    0.22041129E+01    0.15391434E+00
C    -0.32088447E+01    0.24826008E+01    0.37707945E+01
O    -0.22964384E+01   -0.35954325E+00    0.23748150E+01
H    -0.14047882E+01   -0.59618273E+00    0.20958745E+01
H    -0.16352459E+01    0.27495697E+01    0.34680244E+00
H    -0.32525049E+01    0.30002058E+01   -0.98954983E-01
H    -0.25087753E+01    0.14544257E+01   -0.56822667E+00
H    -0.54789765E+01    0.43054143E-02    0.79889041E+00
H    -0.53318002E+01   -0.42578810E+00    0.26858227E+01
H    -0.60405587E+01    0.12793844E+01    0.19739031E+01
H    -0.25438467E+01    0.18027945E+01    0.43267773E+01
H    -0.28084812E+01    0.34487884E+01    0.34750098E+01
H    -0.42463484E+01    0.23329203E+01    0.39511471E+01
          15
Time step:                  29 Sim. Time [au]         290.00
Sn   -0.33164082E+01    0.11846738E+01    0.18578864E+01
C    -0.52669154E+01    0.42969122E+00    0.17701602E+01
C    -0.25208685E+01    0.22047815E+01    0.15497310E+00
C    -0.32081554E+01    0.24850789E+01    0.37742158E+01
O    -0.22974060E+01   -0.35806653E+00    0.23747146E+01
H    -0.14013984E+01   -0.59290537E+00    0.20959179E+01
H    -0.16284924E+01    0.27669894E+01    0.34879090E+00
H    -0.32379239E+01    0.30034828E+01   -0.10265554E+00
H    -0.25128563E+01    0.14394558E+01   -0.57588817E+00
H    -0.54716492E+01    0.81689954E-02    0.78913425E+00
H    -0.53242039E+01   -0.41689990E+00    0.26745661E+01
H    -0.60344604E+01    0.12720748E+01    0.19648012E+01
H    -0.25460616E+01    0.17973666E+01    0.43182416E+01
H    -0.28027958E+01    0.34462902E+01    0.34614054E+01
H    -0.42569581E+01    0.23216634E+01    0.39469915E+01
          15
Time step:                  30 Sim. Time [au]         300.00
Sn   -0.33162652E+01    0.11841419E+01    0.18576554E+01
C    -0.52693119E+01    0.43005273E+00    0.17736205E+01
C    -0.25223223E+01    0.22055553E+01    0.15610840E+00
C    -0.32074650E+01    0.24876051E+01    0.37776629E+01
O    -0.22983691E+01   -0.35653912E+00    0.23746009E+01
H    -0.13984878E+01   -0.58938815E+00    0.20961242E+01
H    -0.16212877E+01    0.27840540E+01    0.35062784E+00
H    -0.32232934E+01    0.30062475E+01   -0.10638672E+00
H    -0.25166451E+01    0.14242428E+01   -0.58401425E+00
H    -0.54639396E+01    0.12110075E-01    0.77989756E+00
H    -0.53166585E+01   -0.40647133E+00    0.26616628E+01
H    -0.60274366E+01    0.12636336E+01    0.19557026E+01
H    -0.25481734E+01    0.17919689E+01    0.43098464E+01
H    -0.27971656E+01    0.34435249E+01    0.34479549E+01
H    -0.42676103E+01    0.23105337E+01    0.39430679E+01
          15
Time step:                  31 Sim. Time [au]         310.00
Sn   -0.33161184E+01    0.11835959E+01    0.18574118E+01
C    -0.52718082E+01    0.43038239E+00    0.17771709E+01
C    -0.25238053E+01    0.22064197E+01    0.15730568E+00
C    -0.32067884E+01    0.24901807E+01    0.37811234E+01
O    -0.22993195E+01   -0.35497851E+00    0.23744798E+01
H    -0.13961504E+01   -0.58558082E+00    0.20965011E+01
H    -0.16138895E+01    0.28005387E+01    0.35226773E+00
H    -0.32087695E+01    0.30086057E+01   -0.11021899E+00
H    -0.25201379E+01    0.14091088E+01   -0.59232683E+00
H    -0.54558221E+01    0.16182777E-01    0.77135974E+00
H    -0.53092228E+01   -0.39460480E+00    0.26472463E+01
H    -0.60196354E+01    0.12542052E+01    0.19466975E+01
H    -0.25501757E+01    0.17865631E+01    0.43016449E+01
H    -0.27916593E+01    0.34404484E+01    0.34347164E+01
H    -0.42780885E+01    0.22996022E+01    0.39393901E+01
          15
Time step:                  32 Sim. Time [au]         320.00
Sn   -0.33159678E+01    0.11830363E+01    0.18571557E+01
C    -0.52743853E+01    0.43067194E+00    0.17807806E+01
C    -0.25252881E+01    0.22073580E+01    0.15855084E+00
C    -0.32061361E+01    0.24928023E+01    0.37845924E+01
O    -0.23002525E+01   -0.35338599E+00    0.23743501E+01
H    -0.13944511E+01   -0.58147300E+00    0.20970667E+01
H    -0.16065139E+01    0.28162450E+01    0.35366533E+00
H    -0.31944975E+01    0.30106398E+01   -0.11418327E+00
H    -0.25233189E+01    0.13943430E+01   -0.60057627E+00
H    -0.54472902E+01    0.20427452E-01    0.76366101E+00
H    -0.53019511E+01   -0.38143344E+00    0.26314683E+01
H    -0.60112366E+01    0.12439619E+01    0.19378593E+01
H    -0.25520735E+01    0.17811386E+01    0.42936703E+01
H    -0.27863461E+01    0.34370309E+01    0.34217356E+01
H    -0.42881934E+01    0.22889480E+01    0.39359498E+01
          15
Time step:                  33 Sim. Time [au]         330.00
Sn   -0.33158137E+01    0.11824636E+01    0.18568868E+01
C    -0.52770198E+01    0.43091037E+00    0.17844161E+01
C    -0.25267431E+01    0.22083529E+01    0.15983132E+00