   11
Time step:                2100 Sim. Time [au]       21000.00
 O   -11.659560     6.532427     6.385413
Sn     3.086716     0.395969    -1.927553
 O     8.846690     1.425058    -1.607808
 C     1.881925    -0.975637    -3.172434
 O     1.654207     0.029287     3.797681
 H     8.832591     1.535960    -0.676363
 H     1.057728    -0.975926    -2.484670
 H     2.277327    -1.821585    -3.609681
 H     1.883757    -0.258995    -3.999085
 H     1.686942     0.722898     4.341131
 H   -11.339898     6.662545     5.569459
