   11
Time step:                2100 Sim. Time [au]       21000.00
 C     1.113335    -1.406811    -3.204557
Sn     1.178157     0.056209    -1.648868
 O    -0.314820     0.974459    -1.305670
 O     1.874536    -0.516260    -0.027519
 O     2.535585     1.524918    -2.413106
 H     2.352916     2.314459    -1.829497
 H     0.423484    -2.186787    -2.704182
 H     6.088354    -2.822734    -3.567377
 H     0.776595    -0.970895    -4.096498
 H     2.666623    -0.968527     0.215675
 H    -1.966658     0.194957     3.373276
