          11
Time step:                2100 Sim. Time [au]       21000.00
O     0.10579706E+01   -0.17377499E+01    0.14112498E+02
Sn    0.24923457E+00   -0.24535271E-01   -0.22823873E+01
O     0.13970604E+00    0.14173205E+01   -0.11971226E+01
C     0.15286251E+01   -0.34838039E+00   -0.39589393E+01
O    -0.10759937E+01   -0.10905714E+01   -0.17933867E+01
H    -0.40219933E+00    0.22425427E+01   -0.11000230E+01
H     0.18034374E+01    0.58121205E+00   -0.43366886E+01
H     0.83993084E+00   -0.82536940E+00   -0.45884572E+01
H     0.23987391E+01   -0.80933592E+00   -0.37205900E+01
H     0.10891779E+01   -0.14757597E+01    0.15008736E+02
H    -0.11681878E+01   -0.20677152E+01   -0.20911910E+01
          11
Time step:                 192 Sim. Time [au]        1920.00
O     0.94738175E+00   -0.40358214E+00    0.97801172E+00
Sn    0.85996128E-01   -0.34102735E-01   -0.68587499E+00
O     0.24111149E+00    0.16592408E+01   -0.13644266E+01
C     0.25359919E+01   -0.86184064E+00   -0.25844301E+01
O    -0.96460934E+00   -0.12767356E+01   -0.14463404E+01
H     0.66709353E+00    0.24868242E+01   -0.13112629E+01
H     0.17913998E+01   -0.11953461E+01   -0.33104098E+01
H     0.26732078E+01   -0.13309697E+01   -0.16470445E+01
H     0.26087987E+01    0.13348788E+00   -0.26814783E+01
H     0.77466697E+00   -0.96905424E+00    0.16933595E+01
H    -0.17006577E+01   -0.15794014E+01   -0.20009804E+01
          11
Time step:                 551 Sim. Time [au]        5510.00
O     0.97291877E+00   -0.43444774E+00    0.76015016E+00
Sn    0.14453945E+00   -0.47605292E-01   -0.76934669E+00
O    -0.80048196E-02    0.17267684E+01   -0.13208231E+01
C     0.28967337E+01   -0.11343874E+01   -0.25890159E+01
O    -0.11602819E+01   -0.11125317E+01   -0.13654378E+01
H     0.51079150E+00    0.23582036E+01   -0.93983254E+00
H     0.25930072E+01   -0.12488095E+01   -0.36101096E+01
H     0.32115944E+01   -0.19305786E+01   -0.20060317E+01
H     0.34733995E+01   -0.32709799E+00   -0.23761355E+01
H     0.43318812E+00   -0.35411490E+00    0.15543320E+01
H    -0.17546393E+01   -0.10083573E+01   -0.20149272E+01
          11
Time step:                 819 Sim. Time [au]        8190.00
O     0.79090529E+00   -0.32117199E+00    0.88291151E+00
Sn    0.63870381E-01    0.51338746E-01   -0.77080161E+00
O     0.40655509E+00    0.16793669E+01   -0.14428831E+01
C     0.35227511E+01   -0.14662911E+01   -0.30093992E+01
O    -0.96488900E+00   -0.11137719E+01   -0.16641799E+01
H     0.10896963E+01    0.21565798E+01   -0.19861489E+01
H     0.26820647E+01   -0.19731641E+01   -0.35162588E+01
H     0.38392742E+01   -0.18307073E+01   -0.20207654E+01
H     0.36750010E+01   -0.46863839E+00   -0.31673852E+01
H     0.51808870E+00   -0.11019066E+01    0.14437362E+01
H    -0.81876694E+00   -0.19927889E+01   -0.13752463E+01
          11
Time step:                2100 Sim. Time [au]       21000.00
O     0.45850824E+00   -0.21671781E+00    0.98123534E+00
Sn    0.29346222E+00   -0.53258935E-01   -0.84259584E+00
O     0.93841618E+00    0.13546218E+01   -0.18364257E+01
C     0.19597274E+01   -0.92879176E+00   -0.28000892E+01
O    -0.65460742E+00   -0.14685023E+01   -0.16959699E+01
H     0.12780849E+01    0.12648481E+01   -0.27162051E+01
H     0.12105498E+01   -0.63778916E+00   -0.34812113E+01
H     0.20330428E+01   -0.17640710E+01   -0.22992042E+01
H     0.27889531E+01   -0.28181935E+00   -0.27185027E+01
H     0.12838168E+01   -0.13221948E+00    0.15561966E+01
H    -0.14884392E+01   -0.15000323E+01   -0.12350204E+01
          11
Time step:                2100 Sim. Time [au]       21000.00
O     0.12614167E+01   -0.61515276E+00    0.63932146E+00
Sn    0.30325421E+00   -0.23877755E-01   -0.85773513E+00
O     0.46642885E+00    0.16223172E+01   -0.17527094E+01
C     0.20244166E+01   -0.13770301E+01   -0.21860895E+01
O    -0.71006231E+00   -0.13265029E+01   -0.15630337E+01
H     0.11779005E+00    0.24232417E+01   -0.14850490E+01
H     0.17096834E+01   -0.15275052E+01   -0.32016780E+01
H     0.18392253E+01   -0.20982287E+01   -0.14541072E+01
H     0.24804048E+01   -0.48114490E+00   -0.19326432E+01
H     0.18753708E+01   -0.79968216E-02    0.11232187E+01
H    -0.14426477E+01   -0.10929322E+01   -0.21113101E+01
          11
Time step:                2100 Sim. Time [au]       21000.00
O     0.12960028E+01   -0.76641299E-01    0.84389127E+00
Sn    0.17806673E+01    0.69271585E+00   -0.75116748E+00
O     0.46010668E+00    0.14585470E+01   -0.15261927E+01
C     0.37140610E+01    0.41236794E-01   -0.14391691E+01
O    -0.12251075E+02   -0.79016285E+01   -0.30635913E+01
H    -0.35949023E+00    0.18763319E+01   -0.13036498E+01
H     0.34283445E+01   -0.47876236E+00   -0.23719472E+01
H     0.41688434E+01   -0.63469481E+00   -0.81024643E+00
H     0.42878097E+01    0.84111793E+00   -0.15956531E+01
H     0.60278122E+00   -0.42771737E+00    0.13557365E+01
H    -0.12934480E+02   -0.73115264E+01   -0.28945659E+01
          11
Time step:                2100 Sim. Time [au]       21000.00
O     0.10676508E+01   -0.16005107E+00    0.98937709E+00
Sn    0.16936528E+00   -0.55701629E-01   -0.69573108E+00
O     0.57248423E+00    0.13422176E+01   -0.16752021E+01
C     0.25019185E+01   -0.84664482E+00   -0.37634724E+01
O    -0.58100656E+00   -0.15270020E+01   -0.14819975E+01
H     0.12836113E+01    0.17352464E+01   -0.21210040E+01
H     0.17957255E+01   -0.79148236E+00   -0.44864151E+01
H     0.31102577E+01   -0.17581210E+01   -0.32158247E+01
H     0.25940297E+01    0.14819166E+00   -0.33035879E+01
H     0.45422512E+00    0.39718532E+00    0.15828507E+01
H    -0.19095519E+00   -0.23507559E+01   -0.11830386E+01
          11
Time step:                2100 Sim. Time [au]       21000.00
O     0.86421018E+00   -0.25345703E+00    0.74433840E+00
Sn   -0.10692709E-01   -0.32208465E-03   -0.78661425E+00
O     0.47534461E+00    0.12255608E+01   -0.20145794E+01
C     0.33377803E+01   -0.13527851E+01   -0.30786802E+01
O    -0.81444111E+00   -0.14770596E+01   -0.15736071E+01
H     0.98816478E+00    0.18769441E+01   -0.15890667E+01
H     0.24178809E+01   -0.19852725E+01   -0.31960344E+01
H     0.43815791E+01   -0.16030314E+01   -0.27179260E+01
H     0.30611198E+01   -0.38179322E+00   -0.26393137E+01
H     0.98358173E+00   -0.80561129E+00    0.14821384E+01
H    -0.11390366E+01   -0.22879128E+01   -0.11835493E+01
          11
Time step:                2100 Sim. Time [au]       21000.00
O     0.77561898E+00   -0.31422836E+00    0.81033810E+00
Sn    0.18050084E+00   -0.63444057E-01   -0.88759024E+00
O     0.54189216E+00    0.15238491E+01   -0.16727685E+01
C     0.21727812E+01   -0.13995272E+01   -0.19641660E+01
O    -0.76014454E+00   -0.13559275E+01   -0.19001625E+01
H    -0.39313366E-01    0.19776281E+01   -0.22126672E+01
H     0.27570240E+01   -0.56723393E+00   -0.15119089E+01
H     0.17413860E+01   -0.20961273E+01   -0.13056093E+01
H     0.27530990E+01   -0.18133326E+01   -0.28935997E+01
H     0.16774218E+01   -0.35686487E-01    0.84799112E+00
H    -0.87755682E+00   -0.21946006E+01   -0.14039395E+01
          11
Time step:                1568 Sim. Time [au]       15680.00
O     0.11081048E+01   -0.42336945E+00    0.61850998E+00
Sn    0.14184223E+00   -0.13514234E+00   -0.86516241E+00
O     0.57392365E+00    0.13037422E+01   -0.18982239E+01
C     0.28399369E+01   -0.11934749E+01   -0.26636838E+01
O    -0.81318989E+00   -0.12613937E+01   -0.18211838E+01
H     0.15036835E+00    0.20598425E+01   -0.22735900E+01
H     0.32892644E+01   -0.48618668E+00   -0.21013222E+01
H     0.22554015E+01   -0.92835185E+00   -0.35242532E+01
H     0.29386552E+01   -0.22271778E+01   -0.25061255E+01
H     0.10853791E+01   -0.83543851E+00    0.13911876E+01
H    -0.11817982E+01   -0.20082687E+01   -0.13234958E+01
          11
Time step:                2100 Sim. Time [au]       21000.00
O     0.38794680E+00   -0.17177114E+00    0.81906315E+00
Sn    0.21416419E+00    0.78986815E-02   -0.93989538E+00
O     0.52587497E+00    0.16916300E+01   -0.16032252E+01
C     0.25146958E+01   -0.15700623E+01   -0.24020448E+01
O    -0.35113005E+00   -0.14978062E+01   -0.19663424E+01
H    -0.20310515E+00    0.20971783E+01   -0.20573229E+01
H     0.20965021E+01   -0.25371196E+01   -0.20709330E+01
H     0.33088744E+01   -0.85671759E+00   -0.18154039E+01
H     0.30799178E+01   -0.18042600E+01   -0.32256591E+01
H     0.34223934E+00   -0.75922077E+00    0.15771029E+01
H    -0.68899586E+00   -0.23000329E+01   -0.15345714E+01
          11
Time step:                1541 Sim. Time [au]       15410.00
O     0.12117376E+01   -0.85241189E+00    0.25607483E+00
Sn    0.14621414E+00    0.17169752E-01   -0.94940310E+00
O     0.61464743E+00    0.17946640E+01   -0.14172923E+01
C     0.24398541E+01   -0.18410199E+01   -0.24087108E+01
O    -0.65592121E+00   -0.11544554E+01   -0.21341505E+01
H     0.85672341E+00    0.20047982E+01   -0.23094597E+01
H     0.31753855E+01   -0.22545918E+01   -0.17589746E+01
H     0.26307761E+01   -0.95161479E+00   -0.28387472E+01
H     0.17363025E+01   -0.25213502E+01   -0.28506308E+01
H     0.17371587E+01   -0.47101662E+00    0.95197492E+00
H    -0.87801034E+00   -0.20745264E+01   -0.18115217E+01
          11
Time step:                 551 Sim. Time [au]        5510.00
O     0.75404221E+00   -0.44078600E+00    0.61588838E+00
Sn    0.30030933E+00   -0.43145978E-01   -0.10834817E+01
O     0.74882383E+00    0.15395942E+01   -0.16884820E+01
C     0.27170112E+01   -0.16436057E+01   -0.31391851E+01
O    -0.10767504E+01   -0.79417864E+00   -0.17684286E+01
H     0.14369016E+00    0.22337597E+01   -0.20439603E+01
H     0.24446084E+01   -0.24994225E+01   -0.37142170E+01
H     0.30463381E+01   -0.20591473E+01   -0.22619389E+01
H     0.29427891E+01   -0.65628404E+00   -0.34754827E+01
H     0.17057359E+01   -0.29942726E+00    0.83843021E+00
H    -0.20440908E+01   -0.10783917E+01   -0.16586407E+01
          11
Time step:                2100 Sim. Time [au]       21000.00
O     0.61951900E+00   -0.37311901E-01    0.50462817E+00
Sn    0.11536871E+01    0.34018997E+00   -0.12152705E+01
O     0.13085687E+01    0.20882184E+01   -0.15092645E+01
C     0.19885093E+01   -0.11573293E+01   -0.23734886E+01
O    -0.74909101E+01   -0.48554779E+01   -0.24082559E+01
H     0.15316103E+01    0.26938312E+01   -0.76759474E+00
H     0.19725297E+01   -0.21048860E+01   -0.18627741E+01
H     0.30393973E+01   -0.84338650E+00   -0.20534943E+01
H     0.16353152E+01   -0.13167183E+01   -0.34545840E+01
H     0.83329786E+00    0.37081803E+00    0.12843561E+01
H    -0.76831804E+01   -0.54927717E+01   -0.16717235E+01
          11
Time step:                 820 Sim. Time [au]        8200.00
O     0.13524021E+01   -0.52367002E+00    0.20362987E+00
Sn    0.24120514E+00   -0.47657369E-01   -0.11485906E+01
O     0.21309656E+00    0.17086432E+01   -0.16283919E+01
C     0.24013319E+01   -0.14165349E+01   -0.31471863E+01
O    -0.10419158E+01   -0.12268576E+01   -0.18152524E+01
H    -0.43370687E+00    0.23059273E+01   -0.19512376E+01
H     0.18656249E+01   -0.14822737E+01   -0.39969095E+01
H     0.24787182E+01   -0.21548137E+01   -0.24062213E+01
H     0.29223104E+01   -0.46616597E+00   -0.30444435E+01
H     0.13956472E+01   -0.13811863E+01    0.75749257E+00
H    -0.14088697E+01   -0.20823770E+01   -0.19277074E+01
          11
Time step:                 278 Sim. Time [au]        2780.00
O     0.10123051E+01    0.91773451E-01    0.28329890E+00
Sn    0.42940210E+00   -0.45346918E+00   -0.12655530E+01
O     0.22815296E+00    0.25305433E+01   -0.17458026E+01
C     0.15432840E+01   -0.42241572E+00   -0.30490123E+01
O    -0.13724462E+01   -0.61083526E+00   -0.15765116E+01
H    -0.67065546E+00    0.23755955E+01   -0.14045238E+01
H     0.15951289E+01   -0.14271921E+01   -0.33873550E+01
H     0.24085283E+01    0.75339579E-01   -0.27121502E+01
H     0.86557040E+00    0.22562315E+00   -0.36017206E+01
H     0.17045259E+01    0.58614756E-01    0.90037303E+00
H    -0.19353017E+01   -0.53332500E+00   -0.80067596E+00
          11
Time step:                1819 Sim. Time [au]       18190.00
O     0.17474161E+01   -0.15566163E+00    0.25213770E+00
Sn    0.11971253E+01    0.19714899E+00   -0.13812164E+01
O     0.61467245E+00    0.19170590E+01   -0.15206086E+01
C     0.16250564E+01   -0.88382938E+00   -0.32035149E+01
O    -0.82718071E+01   -0.35496936E+01   -0.10950286E+01
H     0.61569983E+00    0.24681112E+01   -0.22824053E+01
H     0.18958215E+01   -0.19598978E+01   -0.31788127E+01
H     0.23786150E+01   -0.63208629E-01   -0.34507209E+01
H     0.99851828E+00   -0.71102389E+00   -0.41185667E+01
H     0.19856944E+01    0.35352189E+00    0.97004650E+00
H    -0.91996372E+01   -0.38375656E+01   -0.12753673E+01
          11
Time step:                2100 Sim. Time [au]       21000.00
O     0.10635155E+01   -0.17533109E+01    0.35326557E+00
Sn    0.36804859E+00   -0.90473056E+00   -0.11066164E+01
O     0.99539267E+00    0.83065856E+01   -0.38738544E+01
C     0.13553598E+01   -0.10287571E+01   -0.29774407E+01
O    -0.13864249E+01   -0.91362830E+00   -0.11465691E+01
H     0.57761902E-01    0.83053138E+01   -0.34763798E+01
H     0.72823379E+00   -0.84104371E+00   -0.38110963E+01
H     0.17693626E+01   -0.20442599E+01   -0.28311328E+01
H     0.20898368E+01   -0.36074358E+00   -0.29462379E+01
H     0.76573974E+00   -0.26129997E+01    0.76759451E+00
H    -0.21354276E+01   -0.99456653E+00   -0.61752492E+00
          11
Time step:                 370 Sim. Time [au]        3700.00
O     0.13376714E+01   -0.98511027E+00   -0.14653748E+00
Sn    0.22571844E+00    0.58249531E-01   -0.10552040E+01
O     0.86642258E+00    0.13892724E+01   -0.20733545E+01
C     0.19923234E+01   -0.21472308E+01   -0.38460257E+01
O    -0.12925775E+01   -0.82123144E+00   -0.16327545E+01
H     0.72251130E+00    0.13852456E+01   -0.29177660E+01
H     0.10850783E+01   -0.26897506E+01   -0.40025142E+01
H     0.28370624E+01   -0.26126049E+01   -0.33997242E+01
H     0.20878977E+01   -0.10733394E+01   -0.41335305E+01
H     0.19264375E+01   -0.77314013E+00    0.59731878E+00
H    -0.12341473E+01   -0.16780311E+01   -0.17609802E+01
          11
Time step:                2100 Sim. Time [au]       21000.00
O     0.67935160E+00   -0.41214342E+00   -0.65018521E-01
Sn    0.15675789E+01   -0.18394111E+00   -0.15687661E+01
O     0.16515441E+01    0.16337399E+01   -0.19428535E+01
C     0.23745374E+01   -0.17630624E+01   -0.28782617E+01
O    -0.11051186E+02    0.32460135E-01    0.41180938E+00
H     0.14101044E+01    0.23799966E+01   -0.24888711E+01
H     0.16229588E+01   -0.17385602E+01   -0.37136629E+01
H     0.26357564E+01   -0.25991703E+01   -0.23366039E+01
H     0.31612466E+01   -0.11217352E+01   -0.34341914E+01
H     0.54718353E-01   -0.11195139E+01    0.18172082E+00
H    -0.12035028E+02   -0.17238263E+00    0.72136988E-01
          11
Time step:                2100 Sim. Time [au]       21000.00
O     0.13722267E+01   -0.83563409E+00    0.67383326E-01
Sn    0.15133917E+01   -0.31983971E+00   -0.16806064E+01
O     0.90364102E+00    0.13170062E+01   -0.22941143E+01
C     0.30167914E+01   -0.11554811E+01   -0.28253291E+01
O    -0.11036673E+02    0.13898798E+01    0.10899872E+01
H     0.87218297E+00    0.15890388E+01   -0.31810606E+01
H     0.25393053E+01   -0.12110311E+01   -0.37795291E+01
H     0.32524614E+01   -0.22542625E+01   -0.24735585E+01
H     0.38624967E+01   -0.58355429E+00   -0.27959729E+01
H     0.63551376E+00   -0.80309606E+00    0.65405034E+00
H    -0.11940660E+02    0.13421264E+01    0.73256879E+00
          11
Time step:                2100 Sim. Time [au]       21000.00
O     0.48455908E+01   -0.20614310E+01    0.80855285E+01
Sn   -0.82877890E-02    0.12175618E+00   -0.24698805E+01
O     0.83714933E+00    0.18297379E+01   -0.24611143E+01
C     0.10858788E+01   -0.17872727E+01   -0.30894615E+01
O    -0.14709954E+01    0.48873161E+00   -0.15403608E+01
H     0.24623453E+00    0.24828104E+01   -0.20316409E+01
H     0.81538113E+00   -0.16658441E+01   -0.40535571E+01
H     0.37652673E+00   -0.24656825E+01   -0.26510488E+01
H     0.21938142E+01   -0.17972670E+01   -0.30629813E+01
H     0.47600887E+01   -0.20688620E+01    0.90327442E+01
H    -0.23174536E+01    0.14413825E+00   -0.18647586E+01
          11
Time step:                1286 Sim. Time [au]       12860.00
O     0.14086813E+01   -0.70039020E+00   -0.29098117E+00
Sn    0.42927397E+00    0.25021662E+00   -0.12940703E+01
O     0.11794225E+01    0.17099310E+01   -0.20626528E+01
C     0.86237716E+00   -0.23731770E+01   -0.36971092E+01
O    -0.13962680E+01    0.32575827E+00   -0.12188917E+01
H     0.55110232E+00    0.22636475E+01   -0.25460065E+01
H     0.86806561E+00   -0.16184001E+01   -0.44764676E+01
H     0.46407294E-02   -0.27911163E+01   -0.32832406E+01
H     0.16889917E+01   -0.23049429E+01   -0.30104675E+01
H     0.23620770E+01   -0.80340283E+00   -0.30982020E+00
H    -0.19983975E+01   -0.37612129E+00   -0.94755906E+00
          11
Time step:                1139 Sim. Time [au]       11390.00
O     0.13675406E+01   -0.68131755E+00    0.10619980E+00
Sn    0.48886879E+00    0.25257537E+00   -0.12866673E+01
O     0.13893091E+01    0.17358076E+01   -0.20433754E+01
C     0.98465168E+00   -0.15787875E+01   -0.35512375E+01
O    -0.12434255E+01    0.47025489E+00   -0.10677552E+01
H     0.20599647E+01    0.21751263E+01   -0.16214848E+01
H     0.51448996E+00   -0.86398957E+00   -0.43132059E+01
H     0.40893213E+00   -0.22205776E+01   -0.29591779E+01
H     0.20633660E+01   -0.16825161E+01   -0.33676697E+01
H     0.20463544E+01   -0.11321709E+00    0.71203762E+00
H    -0.16862764E+01   -0.15403086E+00   -0.47484855E+00
          11
Time step:                 660 Sim. Time [au]        6600.00
O     0.15444043E+01   -0.43144615E+00    0.15855644E+00
Sn    0.62854807E+00    0.39827788E+00   -0.11738713E+01
O     0.12696904E+01    0.18002196E+01   -0.20570491E+01
C     0.63575183E+00   -0.28847557E+01   -0.44646099E+01
O    -0.10973318E+01    0.71820343E+00   -0.61396843E+00
H     0.19472330E+01    0.25885387E+01   -0.22602358E+01
H     0.12944555E+01   -0.34136056E+01   -0.37536293E+01
H     0.11828883E+01   -0.25228681E+01   -0.53734165E+01
H    -0.40128567E+00   -0.29061641E+01   -0.43210720E+01
H     0.12569189E+01   -0.95860880E+00    0.91238341E+00
H    -0.15535977E+01    0.15090458E+01   -0.94102880E+00
          11
Time step:                 150 Sim. Time [au]        1500.00
O     0.15750215E+01   -0.37378458E+00    0.74284985E-01
Sn    0.66922739E+00    0.34731728E+00   -0.12432010E+01
O     0.15029734E+01    0.17205920E+01   -0.19873013E+01
C     0.62199661E+00   -0.14566378E+01   -0.31755201E+01
O    -0.10921948E+01    0.53296901E+00   -0.91950939E+00
H     0.23872829E+01    0.20810927E+01   -0.20625744E+01
H     0.13918738E+01   -0.21469958E+01   -0.28741668E+01
H     0.61168812E+00   -0.79268682E+00   -0.39817185E+01
H    -0.34620891E+00   -0.18662409E+01   -0.29080215E+01
H     0.15588367E+01   -0.10449155E+01    0.93886801E+00
H    -0.17341222E+01    0.11802145E+01   -0.12181806E+01
          11
Time step:                2100 Sim. Time [au]       21000.00
O     0.15912952E+01   -0.52619298E+00    0.22406595E+00
Sn    0.65951238E+00    0.49698588E+00   -0.99891559E+00
O     0.15409687E+01    0.12964239E+01   -0.22488808E+01
C     0.67142660E+00   -0.17594537E+01   -0.38365530E+01
O    -0.10954509E+01    0.28382446E+00   -0.12076090E+01
H     0.24802471E+01    0.14480570E+01   -0.23112735E+01
H     0.70513093E+00   -0.27864439E+01   -0.31782972E+01
H     0.38485612E+00   -0.83831952E+00   -0.33842777E+01
H     0.55463642E+00   -0.20107762E+01   -0.48911186E+01
H     0.12748023E+01   -0.99531835E+00    0.88386143E+00
H    -0.17886802E+01    0.89692168E+00   -0.11995116E+01
          11
Time step:                1685 Sim. Time [au]       16850.00
O     0.33778336E+01   -0.32361596E+01    0.27325219E+01
Sn    0.38854416E+00    0.61199221E+00   -0.16977654E+01
O     0.14817600E+01    0.20255283E+01   -0.21928256E+01
C     0.12947521E+01   -0.11174171E+01   -0.17752238E+01
O    -0.10806648E+01    0.12472850E+01   -0.94443844E+00
H     0.22201045E+01    0.22959327E+01   -0.16714131E+01
H     0.62810071E+00   -0.15529421E+01   -0.98323033E+00
H     0.22780161E+01   -0.16340328E+01   -0.15887943E+01
H     0.10957368E+01   -0.18793023E+01   -0.23825841E+01
H     0.36481762E+01   -0.38684170E+01    0.33325491E+01
H    -0.18482347E+01    0.88576803E+00   -0.56020643E+00
          11
Time step:                 920 Sim. Time [au]        9200.00
O     0.16910709E+01   -0.84121877E+00   -0.26266064E+00
Sn    0.78678115E+00    0.58649655E+00   -0.87663082E+00
O     0.17614214E+01    0.17910612E+01   -0.18403221E+01
C     0.62029773E+00   -0.18927157E+01   -0.43545204E+01
O    -0.87310407E+00    0.34417412E+00   -0.16137944E+01
H     0.26986954E+01    0.19958835E+01   -0.19455316E+01
H     0.15650988E+01   -0.24896816E+01   -0.43484013E+01
H     0.38895902E+00   -0.11489324E+01   -0.50960818E+01
H    -0.30125584E+00   -0.25746519E+01   -0.41582102E+01
H     0.13593673E+01   -0.16379429E+01    0.10544454E+00
H    -0.13179876E+01    0.10604700E+01   -0.20921330E+01
          11
Time step:                2100 Sim. Time [au]       21000.00
O     0.18007819E+01   -0.36284800E+00   -0.38582358E+00
Sn    0.21633538E+00   -0.83194051E+00   -0.12348009E+01
O     0.65607642E+01    0.10988438E+02   -0.27549713E+01
C     0.42047360E+00   -0.22638479E+01   -0.27338133E+01
O    -0.99352427E+00    0.40072504E+00   -0.91177505E+00
H     0.73146696E+01    0.11510136E+02   -0.29193755E+01
H    -0.54840681E+00   -0.23889505E+01   -0.32281169E+01
H     0.95047692E+00   -0.31583907E+01   -0.27195374E+01
H     0.11294105E+01   -0.14584529E+01   -0.30848456E+01
H     0.19787248E+01    0.45810210E+00    0.11406886E+00
H    -0.18341650E+01    0.51933702E+00   -0.13070775E+01
          11
Time step:                1363 Sim. Time [au]       13630.00
O     0.16832557E+01   -0.69157971E+00   -0.11726855E+00
Sn    0.88545316E+00    0.51338278E+00   -0.12306863E+01
O     0.17868970E+01    0.17062216E+01   -0.20898653E+01
C     0.45128392E+00   -0.21536886E+01   -0.42798631E+01
O    -0.91207773E+00    0.64389915E+00   -0.13093201E+01
H     0.22830603E+01    0.20337529E+01   -0.28953693E+01
H    -0.27297602E+00   -0.13424534E+01   -0.47214136E+01
H     0.25776761E+00   -0.30029371E+01   -0.37294128E+01
H     0.14222874E+01   -0.23540929E+01   -0.47595563E+01
H     0.19492529E+01   -0.13843892E+01   -0.71902325E+00
H    -0.15379728E+01    0.20023218E+00   -0.70538024E+00
          11
Time step:                2100 Sim. Time [au]       21000.00
O     0.18865398E+01   -0.53152800E+00   -0.33474921E+00
Sn    0.17262885E+01   -0.11390093E+00   -0.20275622E+01
O     0.22459419E+01    0.16077230E+01   -0.22587250E+01
C     0.18692289E+01   -0.13911298E+01   -0.36989198E+01
O    -0.82370211E+01    0.39586854E+01    0.33969643E+01
H     0.21256404E+01    0.25156387E+01   -0.25232485E+01
H     0.27675758E+01   -0.20449179E+01   -0.34847214E+01
H     0.24240665E+01   -0.61278605E+00   -0.44069883E+01
H     0.10649003E+01   -0.19526664E+01   -0.40495426E+01
H     0.27635473E+01   -0.22666776E+00    0.43774134E-02
H    -0.91914148E+01    0.40849923E+01    0.35965087E+01
          11
Time step:                2100 Sim. Time [au]       21000.00
O     0.31391983E+01   -0.77141696E+00   -0.45535802E+00
Sn    0.20748278E+01   -0.23754033E+00   -0.19003985E+01
O     0.16948157E+01    0.15434647E+01   -0.18829008E+01
C     0.23057754E+01   -0.10407214E+01   -0.38450110E+01
O    -0.10556355E+02    0.45804794E+01    0.21534013E+01
H     0.14192930E+01    0.20942979E+01   -0.10971079E+01
H     0.13324881E+01   -0.76220196E+00   -0.43270924E+01
H     0.23868920E+01   -0.20358616E+01   -0.37730058E+01
H     0.31991017E+01   -0.50821439E+00   -0.41141194E+01
H     0.35528886E+01   -0.35950933E+00    0.29113033E+00
H    -0.11319872E+02    0.40244233E+01    0.20411897E+01
          11
Time step:                1967 Sim. Time [au]       19670.00
O     0.18753258E+01   -0.77266526E+00   -0.19212486E+00
Sn    0.10379326E+01    0.36944436E+00   -0.14353107E+01
O     0.19797036E+01    0.17109359E+01   -0.20571200E+01
C     0.93765967E+00   -0.16810788E+01   -0.35318283E+01
O    -0.75400359E+00    0.64635152E+00   -0.13456125E+01
H     0.27540894E+01    0.22275695E+01   -0.22607383E+01
H     0.49738977E+00   -0.96989029E+00   -0.41245746E+01
H     0.23862568E+00   -0.23114596E+01   -0.30590531E+01
H     0.19214318E+01   -0.19395920E+01   -0.37088215E+01
H     0.26627423E+01   -0.37460316E+00    0.25325092E+00
H    -0.13836616E+01   -0.93654248E-01   -0.14285093E+01
          11
Time step:                 254 Sim. Time [au]        2540.00
O     0.20854920E+01   -0.16773875E+00   -0.13646461E+00
Sn    0.92148425E+00   -0.12917085E+00   -0.14754906E+01
O     0.31276517E+01    0.24696254E+01   -0.23291882E+01
C     0.12433766E+01   -0.11061926E+01   -0.34845015E+01
O    -0.28702246E+00    0.12443572E+01   -0.13760880E+01
H     0.33331691E+01    0.33990089E+01   -0.25140804E+01
H     0.44389226E+00   -0.19542686E+01   -0.36324497E+01
H     0.23255352E+01   -0.14997648E+01   -0.32768873E+01
H     0.84612334E+00   -0.21758054E+00   -0.39801236E+01
H     0.28660624E+01   -0.13133574E+00   -0.51918461E+00
H    -0.91939651E-01    0.19058782E+01   -0.74461273E+00
          11
Time step:                1767 Sim. Time [au]       17670.00
O     0.18251921E+01   -0.90344855E+00   -0.19692993E+00
Sn    0.12034277E+01    0.14986532E+00   -0.16441307E+01
O     0.24899435E+01    0.12239445E+01   -0.23674216E+01
C     0.10812386E+01   -0.15849384E+01   -0.32170342E+01
O    -0.32409448E+00    0.10976021E+01   -0.12002950E+01
H     0.21049613E+01    0.22222368E+01   -0.21434996E+01
H     0.19799736E+01   -0.20779311E+01   -0.27299118E+01
H     0.12584088E+01   -0.93202978E+00   -0.40435317E+01
H     0.16301803E+00   -0.19601929E+01   -0.30805315E+01
H     0.23969151E+01   -0.45311629E+00    0.41966575E+00
H    -0.10231509E+01    0.53527766E+00   -0.59505021E+00
          11
Time step:                 807 Sim. Time [au]        8070.00
O     0.17909739E+01   -0.90427535E+00   -0.30891283E+00
Sn    0.12567165E+01    0.41688996E+00   -0.14575620E+01
O     0.25219088E+01    0.11313161E+01   -0.25534046E+01
C     0.63549656E+00   -0.29740451E+01   -0.44453122E+01
O    -0.50624324E+00    0.71333583E+00   -0.16521471E+01
H     0.23771870E+01    0.16402252E+01   -0.33655589E+01
H     0.41572177E+00   -0.37078698E+01   -0.35563055E+01
H     0.15402695E+01   -0.24741254E+01   -0.43066500E+01
H    -0.17687781E+00   -0.24083497E+01   -0.47627723E+01
H     0.24365081E+01   -0.14600022E+01    0.11664768E+00
H    -0.12402751E+01    0.21582813E+00   -0.14741462E+01
          11
Time step:                2100 Sim. Time [au]       21000.00
O     0.15071372E+01   -0.91604679E+00   -0.23308149E+00
Sn    0.12895492E+01    0.29551434E+00   -0.15265383E+01
O     0.24898343E+01    0.74735014E+00   -0.27514245E+01
C     0.90869782E+00   -0.17136337E+01   -0.31376811E+01
O    -0.37881974E+00    0.78386975E+00   -0.19989965E+01
H     0.34205295E+01    0.83385607E+00   -0.25566174E+01
H     0.66565015E-01   -0.15761970E+01   -0.25797385E+01
H     0.16660318E+01   -0.23827799E+01   -0.28678166E+01
H     0.55277343E+00   -0.14919379E+01   -0.41836748E+01
H     0.14821220E+01   -0.18115870E+01   -0.33851950E+00
H    -0.11603617E+01    0.83876246E+00   -0.14837562E+01
          11
Time step:                2100 Sim. Time [au]       21000.00
O     0.29634765E+01   -0.42568956E+01    0.73449104E+01
Sn    0.11899368E+01    0.51864742E+00   -0.25879411E+01
O     0.13419881E+01    0.16423779E+01   -0.39105103E+01
C     0.15329397E+01   -0.15626657E+01   -0.24940272E+01
O     0.21726548E+00    0.13562774E+01   -0.12954225E+01
H     0.17623419E+01    0.19047584E+01   -0.47070007E+01
H     0.15683868E+01   -0.18562099E+01   -0.14541271E+01
H     0.24787976E+01   -0.17741320E+01   -0.29919504E+01
H     0.59214086E+00   -0.19273970E+01   -0.28509178E+01
H     0.29490405E+01   -0.35315133E+01    0.77233106E+01
H    -0.68844295E+00    0.16494281E+01   -0.15836759E+01
          11
Time step:                2100 Sim. Time [au]       21000.00
O     0.14003305E+01   -0.10717398E+01   -0.31991643E+00
Sn    0.13683905E+01    0.27069099E+00   -0.14465556E+01
O     0.26642381E+01    0.86564273E+00   -0.24480754E+01
C     0.10493253E+01   -0.16929428E+01   -0.33089162E+01
O    -0.31750972E+00    0.59315489E+00   -0.21316549E+01
H     0.35446673E+01    0.10742492E+01   -0.24175693E+01
H     0.11640959E+01   -0.12605715E+01   -0.42403608E+01
H     0.17731399E-01   -0.17869318E+01   -0.29642333E+01
H     0.19883947E+01   -0.21790953E+01   -0.27745089E+01
H     0.21728353E+01   -0.15929104E+01    0.97753711E-01
H    -0.43936532E+00    0.36502033E+00   -0.30302274E+01
          11
Time step:                2100 Sim. Time [au]       21000.00
O     0.14996288E+01   -0.50407355E-01   -0.32866183E-01
Sn    0.19460261E+01   -0.32092188E+00   -0.18091866E+01
O     0.37200083E+01   -0.79167916E-01   -0.20735311E+01
C     0.98361087E+00   -0.16781570E+01   -0.29517782E+01
O    -0.54867610E+01    0.43351469E+01   -0.80140443E+00
H     0.40378830E+01    0.66530151E+00   -0.15648913E+01
H     0.16326197E+01   -0.27008197E+01   -0.28727282E+01
H     0.75115076E+00   -0.15706421E+01   -0.40801696E+01
H     0.62023807E-01   -0.19497346E+01   -0.25644886E+01
H     0.11813009E+01   -0.55370168E+00    0.65959206E+00
H    -0.62428509E+01    0.46928859E+01   -0.14367723E+01
          11
Time step:                 642 Sim. Time [au]        6420.00
O     0.17432743E+01   -0.81906324E+00    0.52488945E-01
Sn    0.13872109E+01    0.24216316E+00   -0.14605242E+01
O     0.28883731E+01    0.99037989E+00   -0.21666761E+01
C     0.82537672E+00   -0.30651177E+01   -0.41964695E+01
O    -0.15972709E+00    0.11972385E+01   -0.15527186E+01
H     0.28769438E+01    0.17724530E+01   -0.28927934E+01
H     0.18944936E+01   -0.31635179E+01   -0.45189946E+01
H     0.44335122E-01   -0.28749906E+01   -0.49534404E+01