   11
Time step:                2100 Sim. Time [au]       21000.00
 O     1.057971    -1.737750    14.112498
Sn     0.249235    -0.024535    -2.282387
 O     0.139706     1.417321    -1.197123
 C     1.528625    -0.348380    -3.958939
 O    -1.075994    -1.090571    -1.793387
 H    -0.402199     2.242543    -1.100023
 H     1.803437     0.581212    -4.336689
 H     0.839931    -0.825369    -4.588457
 H     2.398739    -0.809336    -3.720590
 H     1.089178    -1.475760    15.008736
 H    -1.168188    -2.067715    -2.091191
