   15
Time step:                2100 Sim. Time [au]       21000.00
 Sn     1.218174     0.209402     4.136038
 C     3.522055     1.417344     3.418001
 C     1.612555     0.874567     6.076139
 C    -0.111880     1.009759     2.477044
  O     0.849526    -1.493364     4.026128
 H     0.608896    -2.294884     4.363198
 H    -5.081097    -0.225470    13.734573
 H     1.709091     2.009126     5.910335
 H     2.543368     0.325715     6.403417
 H     4.136134     1.034585     4.327716
 H     3.858702     0.862215     2.649827
 H     2.683019     1.840035     3.670014
 H    -0.145705     1.898166     3.097360
 H     0.437467     1.156635     1.470127
 H    -0.381171     0.040127     2.195986
