   15
Time step:                2100 Sim. Time [au]       21000.00
Sn    -4.384406    -8.439797     3.784473
 C    -1.825307    -1.990580     2.048034
 C    -5.546817    -8.569391     5.434637
 C    -4.473954    -9.771403     2.234133
 O   -11.240674     0.864723     9.137500
 H   -11.654812     1.717260     8.856223
 H    -3.456737    -9.514014     2.063961
 H    -4.831751    -9.114138     1.276740
 H    -4.656117   -10.728404     2.712331
 H    -2.711002    -1.498782     1.628077
 H    -1.733484    -1.482899     3.101397
 H    -0.752781    -2.271837     1.753774
 H    -6.606538    -8.226177     5.381816
 H    -5.097976    -9.506567     5.670342
 H    -5.203537    -7.647289     5.863712
